------------------------------------------------------------
          Invoking FHI-aims ...

          When using FHI-aims, please cite the following reference:

            Volker Blum, Ralf Gehrke, Felix Hanke, Paula Havu,
            Ville Havu, Xinguo Ren, Karsten Reuter, and Matthias Scheffler,
            'Ab Initio Molecular Simulations with Numeric Atom-Centered Orbitals',
            Computer Physics Communications 180, 2175-2196 (2009)

          In addition, many other developments in FHI-aims are likely important for
          your particular application. A partial list of references is given at the end of
          this file. Thank you for giving credit to the authors of these developments.

          For any questions about FHI-aims, please visit our slack channel at

            https://fhi-aims.slack.com

          and our main development and support site at

            https://aims-git.rz-berlin.mpg.de .

          The latter site, in particular, has a wiki to collect information, as well
          as an issue tracker to log discussions, suggest improvements, and report issues
          or bugs. https://aims-git.rz-berlin.mpg.de is also the main development site
          of the project and all new and updated code versions can be obtained there.
          Please send an email to aims-coordinators@fhi-berlin.mpg.de and we will add
          you to these sites. They are for you and everyone is welcome there.

------------------------------------------------------------



  Date     :  20220207, Time     :  130508.679
  Time zero on CPU 1             :   0.142744000000000E+00  s.
  Internal wall clock time zero  :           413471108.679  s.

  FHI-aims created a unique identifier for this run for later identification
  aims_uuid : D22AE5DF-1E78-486A-A5C9-0195B923D788

  Build configuration of the current instance of FHI-aims
  -------------------------------------------------------
  FHI-aims version      : 220115
  Commit number         : aa3cb1aa8
  CMake host system     : Linux-4.12.14-122.88-default
  CMake version         : 3.5.2
  Fortran compiler      : /mpcdf/soft/SLE_12/packages/x86_64/intel_parallel_studio/2018.4/compilers_and_libraries_2018.5.274/linux/mpi/bin64/mpiifort (Intel) version 18.0.5.20180823
  Fortran compiler flags: -O3 -ip -fp-model precise -xCORE-AVX512 -qopt-zmm-usage=high
  C compiler            : /mpcdf/soft/SLE_12/packages/x86_64/intel_parallel_studio/2018.4/compilers_and_libraries_2018.5.274/linux/mpi/bin64/mpiicc (Intel) version 18.0.5.20180823
  C compiler flags      : -O3 -ip -fp-model precise -std=gnu99 -xCORE-AVX512 -xCORE-AVX512 -qopt-zmm-usage=high
  ELPA2 kernel          : AVX512
  Using MPI
  Using ScaLAPACK
  Using LibXC
  Using i-PI
  Using RLSY
  Linking against: /mpcdf/soft/SLE_12/packages/x86_64/intel_parallel_studio/2018.4/mkl/lib/intel64/libmkl_intel_lp64.so
                   /mpcdf/soft/SLE_12/packages/x86_64/intel_parallel_studio/2018.4/mkl/lib/intel64/libmkl_sequential.so
                   /mpcdf/soft/SLE_12/packages/x86_64/intel_parallel_studio/2018.4/mkl/lib/intel64/libmkl_core.so
                   /mpcdf/soft/SLE_12/packages/x86_64/intel_parallel_studio/2018.4/mkl/lib/intel64/libmkl_blacs_intelmpi_lp64.so
                   /mpcdf/soft/SLE_12/packages/x86_64/intel_parallel_studio/2018.4/mkl/lib/intel64/libmkl_scalapack_lp64.so

  Using       40 parallel tasks.
  Task        0 on host co1526 reporting.
  Task        1 on host co1526 reporting.
  Task        2 on host co1526 reporting.
  Task        3 on host co1526 reporting.
  Task        4 on host co1526 reporting.
  Task        5 on host co1526 reporting.
  Task        6 on host co1526 reporting.
  Task        7 on host co1526 reporting.
  Task        8 on host co1526 reporting.
  Task        9 on host co1526 reporting.
  Task       10 on host co1526 reporting.
  Task       11 on host co1526 reporting.
  Task       12 on host co1526 reporting.
  Task       13 on host co1526 reporting.
  Task       14 on host co1526 reporting.
  Task       15 on host co1526 reporting.
  Task       16 on host co1526 reporting.
  Task       17 on host co1526 reporting.
  Task       18 on host co1526 reporting.
  Task       19 on host co1526 reporting.
  Task       20 on host co1526 reporting.
  Task       21 on host co1526 reporting.
  Task       22 on host co1526 reporting.
  Task       23 on host co1526 reporting.
  Task       24 on host co1526 reporting.
  Task       25 on host co1526 reporting.
  Task       26 on host co1526 reporting.
  Task       27 on host co1526 reporting.
  Task       28 on host co1526 reporting.
  Task       29 on host co1526 reporting.
  Task       30 on host co1526 reporting.
  Task       31 on host co1526 reporting.
  Task       32 on host co1526 reporting.
  Task       33 on host co1526 reporting.
  Task       34 on host co1526 reporting.
  Task       35 on host co1526 reporting.
  Task       36 on host co1526 reporting.
  Task       37 on host co1526 reporting.
  Task       38 on host co1526 reporting.
  Task       39 on host co1526 reporting.

  Performing system and environment tests:
  | Environment variable OMP_NUM_THREADS correctly set to 1.
  | Checking for ScaLAPACK...
  | Testing pdtran()...
  | All pdtran() tests passed.

  Obtaining array dimensions for all initial allocations:
  
  -----------------------------------------------------------------------
  Parsing control.in (first pass over file, find array dimensions only).
  The contents of control.in will be repeated verbatim below
  unless switched off by setting 'verbatim_writeout .false.' .
  in the first line of control.in .
  -----------------------------------------------------------------------
  
  #===============================================================================
  # FHI-aims file: control.in
  # Created using the Atomic Simulation Environment (ASE)
  # Mon Feb  7 13:03:00 2022
  #===============================================================================
  xc                                 pbesol
  relativistic                       atomic_zora scalar
  k_grid                             10 10 10
  output                             dos_tetrahedron -20 10 6001
  output                             species_proj_dos_tetrahedron -20 10 6001
  output                             band   0.00000  0.00000  0.00000   0.50000  0.00000  0.00000   23 G  L
  output                             band   0.50000  0.00000  0.00000   0.50000  0.23222 -0.23222   18 L  B1
  output                             band   0.76778  0.50000  0.23222   0.50000  0.50000  0.50000   20 B  Z
  output                             band   0.50000  0.50000  0.50000   0.00000  0.00000  0.00000   21 Z  G
  output                             band   0.00000  0.00000  0.00000   0.36611  0.00000 -0.36611   28 G  X
  output                             band   0.63389  0.36611  0.00000   0.50000  0.50000  0.00000   10 Q  F
  output                             band   0.50000  0.50000  0.00000   0.63389  0.63389  0.23222    8 F  P1
  output                             band   0.63389  0.63389  0.23222   0.50000  0.50000  0.50000   18 P1 Z
  output                             band   0.50000  0.00000  0.00000   0.76778  0.36611  0.36611   15 L  P
  spin                               collinear
  #===============================================================================
  
  ################################################################################
  #
  #  FHI-aims code project
  #  VB, Fritz-Haber Institut, 2009
  #
  #  Suggested "light" defaults for Fe atom (to be pasted into control.in file)
  #  Be sure to double-check any results obtained with these settings for post-processing,
  #  e.g., with the "tight" defaults and larger basis sets.
  #
  ################################################################################
    species        Fe
  #     global species definitions
      nucleus             26
      mass                55.845
  #
      l_hartree           4
  #
      cut_pot             3.5          1.5  1.0
      basis_dep_cutoff    1e-4
  #
      radial_base         51 5.0
      radial_multiplier   1
      angular_grids       specified
        division   0.4337   50
        division   0.8154  110
        division   1.1046  194
        division   1.3713  302
  #      division   1.5424  434
  #      division   1.7365  590
  #      division   1.9587  770
  #      division   1.9990  974
  #      division   2.4139 1202
  #      outer_grid  1202
        outer_grid  302
  ################################################################################
  #
  #  Definition of "minimal" basis
  #
  ################################################################################
  #     valence basis states
      valence      4  s   2.
      valence      3  p   6.
      valence      3  d   6.
  #     ion occupancy
      ion_occ      4  s   1.
      ion_occ      3  p   6.
      ion_occ      3  d   5.
  ################################################################################
  #
  #  Suggested additional basis functions. For production calculations,
  #  uncomment them one after another (the most important basis functions are
  #  listed first).
  #
  #  Constructed for dimers: 1.45 A, 1.725 A, 2.25 A, 3.00 A, 4.00 A
  #
  ################################################################################
  #  "First tier" - improvements: -300.53 meV to -10.50 meV
       hydro 4 f 9.4
       hydro 2 p 2.2
  #     hydro 5 g 12.4
       hydro 3 d 3.1
       ionic 4 s auto
  #  "Second tier" - improvements: -16.31 meV to -0.65 meV
  #     hydro 3 d 6.2
  #     hydro 6 h 19.2
  #     hydro 4 f 15.2
  #     hydro 4 f 6.6
  #     hydro 3 p 3
  #     hydro 5 g 13.2
  #     hydro 1 s 0.65
  #  "Third tier" - improvements: -1.60 meV to -0.10 meV
  #     hydro 4 d 7.8
  #     hydro 4 p 19.6
  #     hydro 4 d 10.4
  #     ionic 4 p auto
  #     hydro 6 h 17.6
  #     hydro 5 f 27.2
  #     hydro 4 s 4.8
  #  "Fourth tier": improvements -0.13 meV and below
  #     hydro 5 f 12
  #     hydro 5 g 10.4
  #     hydro 5 p 8.4
  #     hydro 4 d 14.8
  #     hydro 2 s 1.9
  ################################################################################
  #
  #  FHI-aims code project
  #  VB, Fritz-Haber Institut, 2009
  #
  #  Suggested "light" defaults for O atom (to be pasted into control.in file)
  #  Be sure to double-check any results obtained with these settings for post-processing,
  #  e.g., with the "tight" defaults and larger basis sets.
  #
  ################################################################################
    species        O
  #     global species definitions
      nucleus             8
      mass                15.9994
  #
      l_hartree           4
  #
      cut_pot             3.5  1.5  1.0
      basis_dep_cutoff    1e-4
  #
      radial_base         36 5.0
      radial_multiplier   1
       angular_grids specified
        division   0.2659   50
        division   0.4451  110
        division   0.6052  194
        division   0.7543  302
  #      division   0.8014  434
  #      division   0.8507  590
  #      division   0.8762  770
  #      division   0.9023  974
  #      division   1.2339 1202
  #      outer_grid 974
        outer_grid 302
  ################################################################################
  #
  #  Definition of "minimal" basis
  #
  ################################################################################
  #     valence basis states
      valence      2  s   2.
      valence      2  p   4.
  #     ion occupancy
      ion_occ      2  s   1.
      ion_occ      2  p   3.
  ################################################################################
  #
  #  Suggested additional basis functions. For production calculations,
  #  uncomment them one after another (the most important basis functions are
  #  listed first).
  #
  #  Constructed for dimers: 1.0 A, 1.208 A, 1.5 A, 2.0 A, 3.0 A
  #
  ################################################################################
  #  "First tier" - improvements: -699.05 meV to -159.38 meV
       hydro 2 p 1.8
       hydro 3 d 7.6
       hydro 3 s 6.4
  #  "Second tier" - improvements: -49.91 meV to -5.39 meV
  #     hydro 4 f 11.6
  #     hydro 3 p 6.2
  #     hydro 3 d 5.6
  #     hydro 5 g 17.6
  #     hydro 1 s 0.75
  #  "Third tier" - improvements: -2.83 meV to -0.50 meV
  #     ionic 2 p auto
  #     hydro 4 f 10.8
  #     hydro 4 d 4.7
  #     hydro 2 s 6.8
  #  "Fourth tier" - improvements: -0.40 meV to -0.12 meV
  #     hydro 3 p 5
  #     hydro 3 s 3.3
  #     hydro 5 g 15.6
  #     hydro 4 f 17.6
  #     hydro 4 d 14
  # Further basis functions - -0.08 meV and below
  #     hydro 3 s 2.1
  #     hydro 4 d 11.6
  #     hydro 3 p 16
  #     hydro 2 s 17.2
  
  -----------------------------------------------------------------------
  Completed first pass over input file control.in .
  -----------------------------------------------------------------------
  
  
  -----------------------------------------------------------------------
  Parsing geometry.in (first pass over file, find array dimensions only).
  The contents of geometry.in will be repeated verbatim below
  unless switched off by setting 'verbatim_writeout .false.' .
  in the first line of geometry.in .
  -----------------------------------------------------------------------
  
  #=======================================================
  # FHI-aims file: geometry-16.in
  # Created using the Atomic Simulation Environment (ASE)
  # Mon Feb  7 12:08:17 2022
  #=======================================================
  lattice_vector 2.4658686672815109 1.4236699388412444 4.5402028778594570
  lattice_vector -2.4658686672815113 1.4236699388412444 4.5402028778594570
  lattice_vector -0.0000000000000001 -2.8473398776824883 4.5402028778594570
  atom 0.0000000000000003 0.0000000000000004 4.8397953676133989 Fe
      initial_charge         3.000000
      initial_moment         5.000000
  atom 0.0000000000000001 0.0000000000000003 1.9705089491757830 Fe
      initial_charge         3.000000
      initial_moment        -5.000000
  atom 0.0000000000000010 0.0000000000000005 8.7808132659649623 Fe
      initial_charge         3.000000
      initial_moment         5.000000
  atom 0.0000000000000007 0.0000000000000005 11.6500996844025870 Fe
      initial_charge         3.000000
      initial_moment        -5.000000
  atom -0.9443232103768666 1.4236699388412444 7.9453550362540488 O
      initial_charge        -2.000000
  atom -0.7607727284523207 -1.5296428589902662 7.9453550362540479 O
      initial_charge        -2.000000
  atom 1.7050959388291886 0.1059729201490229 7.9453550362540479 O
      initial_charge        -2.000000
  atom 0.9443232103768671 -1.4236699388412439 5.6752535973243186 O
      initial_charge        -2.000000
  atom 0.7607727284523210 1.5296428589902673 5.6752535973243186 O
      initial_charge        -2.000000
  atom -1.7050959388291889 -0.1059729201490216 5.6752535973243203 O
      initial_charge        -2.000000
  
  -----------------------------------------------------------------------
  Completed first pass over input file geometry.in .
  -----------------------------------------------------------------------
  

  Basic array size parameters:
  | Number of species                 :        2
  | Number of atoms                   :       10
  | Number of lattice vectors         :        3
  | Max. basis fn. angular momentum   :        3
  | Max. atomic/ionic basis occupied n:        4
  | Max. number of basis fn. types    :        3
  | Max. radial fns per species/type  :        7
  | Max. logarithmic grid size        :     1397
  | Max. radial integration grid size :       51
  | Max. angular integration grid size:      302
  | Max. angular grid division number :        8
  | Radial grid for Hartree potential :     1397
  | Number of spin channels           :        2

------------------------------------------------------------
          Reading file control.in.
------------------------------------------------------------
  XC: Using PBEsol gradient-corrected functionals.
  Scalar relativistic treatment of kinetic energy: on-site free-atom approximation to ZORA.
  Found k-point grid:        10        10        10
  Calculating density of states with
  | energy interval :-20.000000 10.000000
  | points & tetrahedron method :  6001
  Calculating angular-momentum projected DOS with 
  | energy interval :-20.000000 10.000000
  | points & tetrahedron :  6001

  Plot band    1
  | begin  0.000000  0.000000  0.000000
  | end    0.500000  0.000000  0.000000
  | number of points:   23

  Plot band    2
  | begin  0.500000  0.000000  0.000000
  | end    0.500000  0.232220 -0.232220
  | number of points:   18

  Plot band    3
  | begin  0.767780  0.500000  0.232220
  | end    0.500000  0.500000  0.500000
  | number of points:   20

  Plot band    4
  | begin  0.500000  0.500000  0.500000
  | end    0.000000  0.000000  0.000000
  | number of points:   21

  Plot band    5
  | begin  0.000000  0.000000  0.000000
  | end    0.366110  0.000000 -0.366110
  | number of points:   28

  Plot band    6
  | begin  0.633890  0.366110  0.000000
  | end    0.500000  0.500000  0.000000
  | number of points:   10

  Plot band    7
  | begin  0.500000  0.500000  0.000000
  | end    0.633890  0.633890  0.232220
  | number of points:    8

  Plot band    8
  | begin  0.633890  0.633890  0.232220
  | end    0.500000  0.500000  0.500000
  | number of points:   18

  Plot band    9
  | begin  0.500000  0.000000  0.000000
  | end    0.767780  0.366110  0.366110
  | number of points:   15
  Spin treatment: Spin density functional theory - collinear spins.
 
  Reading configuration options for species Fe                  .
  | Found nuclear charge :  26.0000
  | Found atomic mass :    55.8450000000000      amu
  | Found l_max for Hartree potential  :   4
  | Found cutoff potl. onset [A], width [A], scale factor :    3.50000    1.50000    1.00000
  | Threshold for basis-dependent cutoff potential is   0.100000E-03
  | Found data for basic radial integration grid :    51 points, outermost radius =    5.000 A
  | Found multiplier for basic radial grid :   1
  | Found angular grid specification: user-specified.
  | Specified grid contains     5 separate shells.
  | Check grid settings after all constraints further below.
  | Found free-atom valence shell :  4 s   2.000
  | Found free-atom valence shell :  3 p   6.000
  | Found free-atom valence shell :  3 d   6.000
  | Found free-ion valence shell :  4 s   1.000
  | Found free-ion valence shell :  3 p   6.000
  | Found free-ion valence shell :  3 d   5.000
  | Found hydrogenic basis function :  4 f   9.400
  | Found hydrogenic basis function :  2 p   2.200
  | Found hydrogenic basis function :  3 d   3.100
  | Found ionic basis function :  4 s , default cutoff radius.
  Species Fe                  : Missing cutoff potential type.
  Defaulting to exp(1/x)/(1-x)^2 type cutoff potential.
  Species Fe: No 'logarithmic' tag. Using default grid for free atom:
  | Default logarithmic grid data [bohr] : 0.1000E-03 0.1000E+03 0.1012E+01
  | Will include ionic basis functions of  2.0-fold positive Fe                   ion.
  Species Fe: On-site basis accuracy parameter (for Gram-Schmidt orthonormalisation) not specified.
  Using default value basis_acc =  0.1000000E-03.
  Species Fe                  : Using default innermost maximum threshold i_radial=  2 for radial functions.
  Species Fe                  : Default cutoff onset for free atom density etc. : 0.35000000E+01 AA.
  Species Fe                  : Basic radial grid will be enhanced according to radial_multiplier =   1, to contain    51 grid points.
 
  Reading configuration options for species O                   .
  | Found nuclear charge :   8.0000
  | Found atomic mass :    15.9994000000000      amu
  | Found l_max for Hartree potential  :   4
  | Found cutoff potl. onset [A], width [A], scale factor :    3.50000    1.50000    1.00000
  | Threshold for basis-dependent cutoff potential is   0.100000E-03
  | Found data for basic radial integration grid :    36 points, outermost radius =    5.000 A
  | Found multiplier for basic radial grid :   1
  | Found angular grid specification: user-specified.
  | Specified grid contains     5 separate shells.
  | Check grid settings after all constraints further below.
  | Found free-atom valence shell :  2 s   2.000
  | Found free-atom valence shell :  2 p   4.000
  | Found free-ion valence shell :  2 s   1.000
  | Found free-ion valence shell :  2 p   3.000
  | Found hydrogenic basis function :  2 p   1.800
  | Found hydrogenic basis function :  3 d   7.600
  | Found hydrogenic basis function :  3 s   6.400
  Species O                   : Missing cutoff potential type.
  Defaulting to exp(1/x)/(1-x)^2 type cutoff potential.
  Species O : No 'logarithmic' tag. Using default grid for free atom:
  | Default logarithmic grid data [bohr] : 0.1000E-03 0.1000E+03 0.1012E+01
  Species O : On-site basis accuracy parameter (for Gram-Schmidt orthonormalisation) not specified.
  Using default value basis_acc =  0.1000000E-03.
  Species O                   : Using default innermost maximum threshold i_radial=  2 for radial functions.
  Species O                   : Default cutoff onset for free atom density etc. : 0.35000000E+01 AA.
  Species O                   : Basic radial grid will be enhanced according to radial_multiplier =   1, to contain    36 grid points.
 
  Finished reading input file 'control.in'.
 
------------------------------------------------------------


------------------------------------------------------------
          Reading geometry description geometry.in.
------------------------------------------------------------
  | The smallest distance between any two atoms is         1.90172892 AA.
  | The first atom of this pair is atom number                      3 .
  | The second atom of this pair is atom number                     7 .
  | Wigner-Seitz cell of the first atom image           0     1     0 .
  | (The Wigner-Seitz cell of the second atom is 0 0 0  by definition.)

  Symmetry information by spglib:
  | Precision set to  0.1E-04
  | Number of Operations  : 12
  | Space group           : 167
  | International         : R-3c
  | Schoenflies           : D3d^6
  Input structure read successfully.
  The structure contains       10 atoms,  and a total of        152.000 electrons.

  Input geometry:
  | Unit cell:
  |        2.46586867        1.42366994        4.54020288
  |       -2.46586867        1.42366994        4.54020288
  |       -0.00000000       -2.84733988        4.54020288
  | Atomic structure:
  |       Atom                x [A]            y [A]            z [A]
  |    1: Species Fe            0.00000000        0.00000000        4.83979537
  |    2: Species Fe            0.00000000        0.00000000        1.97050895
  |    3: Species Fe            0.00000000        0.00000000        8.78081327
  |    4: Species Fe            0.00000000        0.00000000       11.65009968
  |    5: Species O            -0.94432321        1.42366994        7.94535504
  |    6: Species O            -0.76077273       -1.52964286        7.94535504
  |    7: Species O             1.70509594        0.10597292        7.94535504
  |    8: Species O             0.94432321       -1.42366994        5.67525360
  |    9: Species O             0.76077273        1.52964286        5.67525360
  |   10: Species O            -1.70509594       -0.10597292        5.67525360

  Lattice parameters for 3D lattice (in Angstroms) :     5.359178    5.359178    5.359178
  Angle(s) between unit vectors (in degrees)       :    54.789793   54.789793   54.789793


  Quantities derived from the lattice vectors:
  | Reciprocal lattice vector 1:  1.274031  0.735562  0.461300
  | Reciprocal lattice vector 2: -1.274031  0.735562  0.461300
  | Reciprocal lattice vector 3:  0.000000 -1.471124  0.461300
  | Unit cell volume                               :   0.956326E+02  A^3

  Fractional coordinates:
                         L1                L2                L3
       atom_frac         0.35532886        0.35532886        0.35532886  Fe
       atom_frac         0.14467114        0.14467114        0.14467114  Fe
       atom_frac         0.64467114        0.64467114        0.64467114  Fe
       atom_frac         0.85532886        0.85532886        0.85532886  Fe
       atom_frac         0.55852119        0.94147881        0.25000000  O
       atom_frac         0.25000000        0.55852119        0.94147881  O
       atom_frac         0.94147881        0.25000000        0.55852119  O
       atom_frac         0.44147881        0.05852119        0.75000000  O
       atom_frac         0.75000000        0.44147881        0.05852119  O
       atom_frac         0.05852119        0.75000000        0.44147881  O

  Initial moments and charges:
  |  Atom   Moment         Charge        Species
  |     1   0.500000E+01   0.300000E+01   Fe
  |     2  -0.500000E+01   0.300000E+01   Fe
  |     3   0.500000E+01   0.300000E+01   Fe
  |     4  -0.500000E+01   0.300000E+01   Fe
  |     5   0.000000E+00  -0.200000E+01   O
  |     6   0.000000E+00  -0.200000E+01   O
  |     7   0.000000E+00  -0.200000E+01   O
  |     8   0.000000E+00  -0.200000E+01   O
  |     9   0.000000E+00  -0.200000E+01   O
  |    10   0.000000E+00  -0.200000E+01   O

 
  Finished reading input file 'control.in'.
 

------------------------------------------------------------
          Reading geometry description geometry.in.
------------------------------------------------------------
 
  Consistency checks for stacksize environment parameter are next.
 
  | Maximum stacksize for task 0: unlimited
  | Maximum stacksize for task 1: unlimited
  | Maximum stacksize for task 2: unlimited
  | Maximum stacksize for task 3: unlimited
  | Maximum stacksize for task 4: unlimited
  | Maximum stacksize for task 5: unlimited
  | Maximum stacksize for task 6: unlimited
  | Maximum stacksize for task 7: unlimited
  | Maximum stacksize for task 8: unlimited
  | Maximum stacksize for task 9: unlimited
  | Maximum stacksize for task 10: unlimited
  | Maximum stacksize for task 11: unlimited
  | Maximum stacksize for task 12: unlimited
  | Maximum stacksize for task 13: unlimited
  | Maximum stacksize for task 14: unlimited
  | Maximum stacksize for task 15: unlimited
  | Maximum stacksize for task 16: unlimited
  | Maximum stacksize for task 17: unlimited
  | Maximum stacksize for task 18: unlimited
  | Maximum stacksize for task 19: unlimited
  | Maximum stacksize for task 20: unlimited
  | Maximum stacksize for task 21: unlimited
  | Maximum stacksize for task 22: unlimited
  | Maximum stacksize for task 23: unlimited
  | Maximum stacksize for task 24: unlimited
  | Maximum stacksize for task 25: unlimited
  | Maximum stacksize for task 26: unlimited
  | Maximum stacksize for task 27: unlimited
  | Maximum stacksize for task 28: unlimited
  | Maximum stacksize for task 29: unlimited
  | Maximum stacksize for task 30: unlimited
  | Maximum stacksize for task 31: unlimited
  | Maximum stacksize for task 32: unlimited
  | Maximum stacksize for task 33: unlimited
  | Maximum stacksize for task 34: unlimited
  | Maximum stacksize for task 35: unlimited
  | Maximum stacksize for task 36: unlimited
  | Maximum stacksize for task 37: unlimited
  | Maximum stacksize for task 38: unlimited
  | Maximum stacksize for task 39: unlimited
  | Current stacksize for task 0: unlimited
  | Current stacksize for task 1: unlimited
  | Current stacksize for task 2: unlimited
  | Current stacksize for task 3: unlimited
  | Current stacksize for task 4: unlimited
  | Current stacksize for task 5: unlimited
  | Current stacksize for task 6: unlimited
  | Current stacksize for task 7: unlimited
  | Current stacksize for task 8: unlimited
  | Current stacksize for task 9: unlimited
  | Current stacksize for task 10: unlimited
  | Current stacksize for task 11: unlimited
  | Current stacksize for task 12: unlimited
  | Current stacksize for task 13: unlimited
  | Current stacksize for task 14: unlimited
  | Current stacksize for task 15: unlimited
  | Current stacksize for task 16: unlimited
  | Current stacksize for task 17: unlimited
  | Current stacksize for task 18: unlimited
  | Current stacksize for task 19: unlimited
  | Current stacksize for task 20: unlimited
  | Current stacksize for task 21: unlimited
  | Current stacksize for task 22: unlimited
  | Current stacksize for task 23: unlimited
  | Current stacksize for task 24: unlimited
  | Current stacksize for task 25: unlimited
  | Current stacksize for task 26: unlimited
  | Current stacksize for task 27: unlimited
  | Current stacksize for task 28: unlimited
  | Current stacksize for task 29: unlimited
  | Current stacksize for task 30: unlimited
  | Current stacksize for task 31: unlimited
  | Current stacksize for task 32: unlimited
  | Current stacksize for task 33: unlimited
  | Current stacksize for task 34: unlimited
  | Current stacksize for task 35: unlimited
  | Current stacksize for task 36: unlimited
  | Current stacksize for task 37: unlimited
  | Current stacksize for task 38: unlimited
  | Current stacksize for task 39: unlimited
 
  Consistency checks for the contents of control.in are next.
 
  MPI_IN_PLACE appears to work with this MPI implementation.
  | Keeping use_mpi_in_place .true. (see manual).
  Target number of points in a grid batch is not set. Defaulting to  100
  Method for grid partitioning is not set. Defaulting to parallel hash+maxmin partitioning.
  Batch size limit is not set. Defaulting to    200
  By default, will store active basis functions for each batch.
  If in need of memory, prune_basis_once .false. can be used to disable this option.
  communication_type for Hartree potential was not specified.
  Defaulting to calc_hartree .
  Defaulting to Pulay charge density mixer.
  Pulay mixer: Number of relevant iterations not set.
  Defaulting to    8 iterations.
  Pulay mixer: Number of initial linear mixing iterations not set.
  Defaulting to    0 iterations.
  Work space size for distributed Hartree potential not set.
  Defaulting to   0.200000E+03 MB.
  Mixing parameter for charge density mixing has not been set.
  Using default: charge_mix_param =     0.0500.
  The mixing parameter will be adjusted in iteration number     2 of the first full s.c.f. cycle only.
  Mixing parameter for spin density mixing has not been set.
  Using charge_mix_param as default:     0.0500.
  Algorithm-dependent basis array size parameters:
  | n_max_pulay                         :        8
  Maximum number of self-consistency iterations not provided.
  Presetting  1000 iterations.
  Presetting      1001 iterations before the initial mixing cycle
  is restarted anyway using the sc_init_iter criterion / keyword.
  Presetting a factor      1.000 between actual scf density residual
  and density convergence criterion sc_accuracy_rho below which sc_init_iter
  takes no effect.
 * No s.c.f. convergence criteria (sc_accuracy_*) were provided in control.in.
 * The run will proceed with a reasonable default guess, but please check whether.
 * the s.c.f. cycles seem to take too much or too little time.
  Calculation of forces was not defined in control.in. No forces will be calculated.
  Geometry relaxation not requested: no relaxation will be performed.
 * Notice: The s.c.f. convergence criterion sc_accuracy_rho was not provided.
 * We used to stop in this case, and ask the user to provide reasonable
 * scf convergence criteria. However, this led some users to employ criteria
 * that led to extremely long run times, e.g., for simple relaxation.
 * We now preset a default value for sc_accuracy_rho if it is not set.
 * You may still wish to check if this setting is too tight or too loose for your needs.
 * Based on n_atoms and forces and force-correction status, FHI-aims chose sc_accuracy_rho =  0.129099E-05 .
  No accuracy limit for integral partition fn. given. Defaulting to  0.1000E-14.
  No threshold value for u(r) in integrations given. Defaulting to  0.1000E-05.
  No occupation type (smearing scheme) given. Defaulting to Gaussian broadening, width =  0.1000E-01 eV.
  The width will be adjusted in iteration number     2 of the first full s.c.f. cycle only.
  S.C.F. convergence parameters will be adjusted in iteration number     2 of the first full s.c.f. cycle only.
  No accuracy for occupation numbers given. Defaulting to  0.1000E-12.
  No threshold value for occupation numbers given. Defaulting to  0.0000E+00.
  No accuracy for fermi level given. Defaulting to  0.1000E-19.
  Maximum # of iterations to find E_F not set. Defaulting to  200.
  Preferred method for the eigenvalue solver ('KS_method') not specified in 'control.in'.
  Defaulting to serial version, LAPACK (via ELSI), since more k-points than CPUs available.
  Will not use alltoall communication since running on < 1024 CPUs.
  Threshold for basis singularities not set.
  Default threshold for basis singularities:  0.1000E-04
  partition_type (choice of integration weights) for integrals was not specified.
  | Using a version of the partition function of Stratmann and coworkers ('stratmann_sparse').
  | At each grid point, the set of atoms used to build the partition table is smoothly restricted to
  | only those atoms whose free-atom density would be non-zero at that grid point.
  Partitioning for Hartree potential was not defined. Using partition_type for integrals.
  | Adjusted default value of keyword multip_moments_threshold to:       0.10000000E-11
  | This value may affect high angular momentum components of the Hartree potential in periodic systems.
  Angular momentum expansion for Kerker preconditioner not set explicitly.
  | Using default value of   0
  No explicit requirement for turning off preconditioner.
  | By default, it will be turned off when the charge convergence reaches
  | sc_accuracy_rho  =   0.129099E-05
  No special mixing parameter while Kerker preconditioner is on.
  Using default: charge_mix_param =     0.0500.
  No q(lm)/r^(l+1) cutoff set for long-range Hartree potential.
  | Using default value of  0.100000E-09 .
  | Verify using the multipole_threshold keyword.
  Defaulting to new monopole extrapolation.
  Density update method: automatic selection selected.
  Using density matrix based charge density update.
  Using density matrix based charge density update.
  Using packed matrix style: index .
  Defaulting to use time-reversal symmetry for k-point grid.
  Charge integration errors on the 3D integration grid will be compensated
  by explicit normalization and distribution of residual charges.
  Use the "compensate_multipole_errors" flag to change this behaviour.
  Set 'collect_eigenvectors' to be '.true.' for all serial calculations. This is mandatory.
  Set 'collect_eigenvectors' to be '.true.' for KS_method lapack_fast and serial.
 
  Consistency checks for the contents of geometry.in are next.
 

  Range separation radius for Ewald summation (hartree_convergence_parameter):      2.92193490 bohr.
  Number of empty states per atom not set in control.in - providing a guess from actual geometry.
  | Total number of empty states used during s.c.f. cycle:       40
  If you use a very high smearing, use empty_states (per atom!) in control.in to increase this value.

  Structure-dependent array size parameters: 
  | Number of distinct atom types in initial rho :        3
  | Maximum number of distinct radial functions  :       17
  | Maximum number of basis functions            :      208
  | Number of Kohn-Sham states (occupied + empty):      116
------------------------------------------------------------

------------------------------------------------------------
          Preparing all fixed parts of the calculation.
------------------------------------------------------------
  Determining machine precision:
    2.225073858507201E-308
  Setting up grids for atomic and cluster calculations.

  Creating wave function, potential, and density for free atoms.

  Species: Fe

  List of occupied orbitals and eigenvalues:
    n    l              occ      energy [Ha]    energy [eV]
    1    0           2.0000      -259.347078     -7057.1931
    2    0           2.0000       -30.151288      -820.4583
    3    0           2.0000        -3.446299       -93.7786
    4    0           2.0000        -0.186616        -5.0781
    2    1           6.0000       -25.685596      -698.9406
    3    1           6.0000        -2.197354       -59.7930
    3    2           6.0000        -0.267356        -7.2751


  Species: O

  List of occupied orbitals and eigenvalues:
    n    l              occ      energy [Ha]    energy [eV]
    1    0           2.0000       -18.926989      -515.0296
    2    0           2.0000        -0.880247       -23.9527
    2    1           4.0000        -0.331514        -9.0210

  Spin-polarized or charged system:
  Charge density initialized according to selected moments and charges.

  Creating spin-polarized density from free atoms.

  Species: Fe
  Charge:   3.000000
  Moment:   5.000000

  List of occupied orbitals and eigenvalues:
    n    l      energy [Ha]    energy [eV]    occupation
  Spin-up
    1    0      -261.077865     -7104.2902     1.00000000
    2    0       -31.961819      -869.7254     1.00000000
    3    0        -5.198361      -141.4546     1.00000000
    4    0        -1.285473       -34.9795     1.00000000
    2    1       -27.481781      -747.8173     3.00000000
    3    1        -3.930428      -106.9524     3.00000000
    3    2        -1.933063       -52.6013     4.00000000
  Spin-down
    1    0      -261.075427     -7104.2238     1.00000000
    2    0       -31.873428      -867.3201     1.00000000
    3    0        -5.000758      -136.0775     1.00000000
    4    0        -1.163102       -31.6496     0.00000000
    2    1       -27.414216      -745.9788     3.00000000
    3    1        -3.735611      -101.6511     3.00000000
    3    2        -1.741223       -47.3811     0.00000000


  Species: Fe
  Charge:   3.000000
  Moment:  -5.000000

  List of occupied orbitals and eigenvalues:
    n    l      energy [Ha]    energy [eV]    occupation
  Spin-up
    1    0      -261.075427     -7104.2238     1.00000000
    2    0       -31.873428      -867.3201     1.00000000
    3    0        -5.000758      -136.0775     1.00000000
    4    0        -1.163102       -31.6496     0.00000000
    2    1       -27.414216      -745.9788     3.00000000
    3    1        -3.735611      -101.6511     3.00000000
    3    2        -1.741223       -47.3811     0.00000000
  Spin-down
    1    0      -261.077865     -7104.2902     1.00000000
    2    0       -31.961819      -869.7254     1.00000000
    3    0        -5.198361      -141.4546     1.00000000
    4    0        -1.285473       -34.9795     1.00000000
    2    1       -27.481781      -747.8173     3.00000000
    3    1        -3.930428      -106.9524     3.00000000
    3    2        -1.933063       -52.6013     4.00000000


  Species: O
  Charge:  -2.000000
  Moment:   0.000000

  List of occupied orbitals and eigenvalues:
    n    l      energy [Ha]    energy [eV]    occupation
  Spin-up
    1    0       -18.178513      -494.6625     1.00000000
    2    0        -0.165814        -4.5120     1.00000000
    2    1         0.349774         9.5178     3.00000000
  Spin-down
    1    0       -18.178513      -494.6625     1.00000000
    2    0        -0.165814        -4.5120     1.00000000
    2    1         0.349774         9.5178     3.00000000


  Adding cutoff potential to free-atom effective potential.
  Creating fixed part of basis set: Ionic, confined, hydrogenic.
 
  Fe                   ion:

  List of free ionic orbitals and eigenvalues:
    n    l      energy [Ha]    energy [eV]
    1    0      -260.321188     -7083.6999
    2    0       -31.136355      -847.2633
    3    0        -4.393974      -119.5661
    4    0        -0.821894       -22.3649
    2    1       -26.668999      -725.7004
    3    1        -3.137384       -85.3726
    3    2        -1.170461       -31.8499


  List of ionic basis orbitals and eigenvalues:
    n    l      energy [Ha]    energy [eV]    outer radius [A]
    4    0        -0.821823       -22.3629       4.554938

 
  Fe                   hydrogenic:
 
  List of hydrogenic basis orbitals: 
    n    l      effective z      eigenvalue [eV]  inner max. [A]     outer max. [A]     outer radius [A]   
    4    3         9.400000       -75.1370           0.896093           0.896093           3.791786
    2    1         2.200000       -16.4552           0.964292           0.964292           4.554938
    3    2         3.100000       -14.4291           1.515830           1.515830           4.610964
 
 
  O                    hydrogenic:
 
  List of hydrogenic basis orbitals: 
    n    l      effective z      eigenvalue [eV]  inner max. [A]     outer max. [A]     outer radius [A]   
    2    1         1.800000       -10.9749           1.164242           1.164242           4.578029
    3    2         7.600000       -87.3180           0.624125           0.624125           3.251020
    3    0         6.400000       -61.9207           0.061167           1.081902           4.001998
 
  Creating atomic-like basis functions for current effective potential.

  Species Fe                  :

  List of atomic basis orbitals and eigenvalues:
    n    l      energy [Ha]    energy [eV]    outer radius [A]
    1    0      -259.347078     -7057.1931       0.409790
    2    0       -30.151288      -820.4583       1.216422
    3    0        -3.446299       -93.7786       3.438507
    4    0        -0.186616        -5.0781       4.610964
    2    1       -25.685596      -698.9406       1.277383
    3    1        -2.197354       -59.7930       3.981813
    3    2        -0.267356        -7.2751       4.499593


  Species O                   :

  List of atomic basis orbitals and eigenvalues:
    n    l      energy [Ha]    energy [eV]    outer radius [A]
    1    0       -18.926989      -515.0296       1.415765
    2    0        -0.880247       -23.9527       4.413171
    2    1        -0.331514        -9.0210       4.522403

  Assembling full basis from fixed parts.
  | Species Fe :   atomic orbital   1 s accepted.
  | Species Fe :   atomic orbital   2 s accepted.
  | Species Fe :   atomic orbital   3 s accepted.
  | Species Fe :    ionic orbital   4 s accepted.
  | Species Fe :   atomic orbital   4 s accepted.
  | Species Fe :   atomic orbital   2 p accepted.
  | Species Fe :   atomic orbital   3 p accepted.
  | Species Fe :    hydro orbital   2 p accepted.
  | Species Fe :   atomic orbital   3 d accepted.
  | Species Fe :    hydro orbital   3 d accepted.
  | Species Fe :    hydro orbital   4 f accepted.
  | Species O :   atomic orbital   1 s accepted.
  | Species O :    hydro orbital   3 s accepted.
  | Species O :   atomic orbital   2 s accepted.
  | Species O :   atomic orbital   2 p accepted.
  | Species O :    hydro orbital   2 p accepted.
  | Species O :    hydro orbital   3 d accepted.
 
  Basis size parameters after reduction:
  | Total number of radial functions:       17
  | Total number of basis functions :      208
 
  Per-task memory consumption for arrays in subroutine allocate_ext:
  |           6.085760MB.
  Testing on-site integration grid accuracy.
  |  Species  Function  <phi|h_atom|phi> (log., in eV)  <phi|h_atom|phi> (rad., in eV)
           1        1              -7057.1930710306              -7057.1872777124
           1        2               -820.4582952878               -820.4582331439
           1        3                -93.7785623021                -93.7785610589
           1        4                 -4.2201457338                 -4.2209190008
           1        5                  6.4834568061                  6.3497174940 ***
           1        6               -698.9406259938               -698.9406257532
           1        7                -59.7930400084                -59.7930399016
           1        8                  2.2031040148                  2.1993518317
           1        9                 -7.2752599110                 -7.2754441096
           1       10                  7.3532119403                  7.3196728658 ***
           1       11                 40.5776732000                 40.5777100294
           2       12               -515.0295626295               -515.0294562738
           2       13                 15.1698434419                 15.1699322204
           2       14                -21.6038822678                -21.6039118105
           2       15                 -9.0211123393                 -9.0212703513
           2       16                  8.3047696391                  8.2854840999
           2       17                 45.8428042125                 45.8427461222
 * Note: Onsite integrals marked "***" above are less accurate than
 * onsite_accuracy_threshold =    0.03000 eV. Usually, this is harmless.
 * When in doubt, tighten the "radial" and/or "radial_multiplier" flags to check.

  Preparing densities etc. for the partition functions (integrals / Hartree potential).

  Preparations completed.
  max(cpu_time)          :      0.656 s.
  Wall clock time (cpu1) :      1.248 s.
------------------------------------------------------------

------------------------------------------------------------
          Begin self-consistency loop: Initialization.

          Date     :  20220207, Time     :  130511.782
------------------------------------------------------------

  Initializing index lists of integration centers etc. from given atomic structure:
  Mapping all atomic coordinates to central unit cell.

  Initializing the k-points
  Using symmetry for reducing the k-points
  | k-points reduced from:     1000 to      504
  | Number of k-points                             :       504
  The eigenvectors in the calculations are COMPLEX.
  | K-points in task   0:        12
  | K-points in task   1:        13
  | K-points in task   2:        13
  | K-points in task   3:        13
  | K-points in task   4:        13
  | K-points in task   5:        13
  | K-points in task   6:        13
  | K-points in task   7:        13
  | K-points in task   8:        13
  | K-points in task   9:        13
  | K-points in task  10:        13
  | K-points in task  11:        13
  | K-points in task  12:        13
  | K-points in task  13:        13
  | K-points in task  14:        13
  | K-points in task  15:        13
  | K-points in task  16:        13
  | K-points in task  17:        13
  | K-points in task  18:        13
  | K-points in task  19:        13
  | K-points in task  20:        13
  | K-points in task  21:        13
  | K-points in task  22:        13
  | K-points in task  23:        13
  | K-points in task  24:        13
  | K-points in task  25:        12
  | K-points in task  26:        12
  | K-points in task  27:        12
  | K-points in task  28:        12
  | K-points in task  29:        12
  | K-points in task  30:        12
  | K-points in task  31:        12
  | K-points in task  32:        12
  | K-points in task  33:        12
  | K-points in task  34:        12
  | K-points in task  35:        12
  | K-points in task  36:        12
  | K-points in task  37:        12
  | K-points in task  38:        12
  | K-points in task  39:        12
  | Number of basis functions in the Hamiltonian integrals :      4020
  | Number of basis functions in a single unit cell        :       208
  | Number of centers in hartree potential         :      1492
  | Number of centers in hartree multipole         :      1036
  | Number of centers in electron density summation:       746
  | Number of centers in basis integrals           :       818
  | Number of centers in integrals                 :       284
  | Number of centers in hamiltonian               :       746
  | Consuming       1023 KiB for k_phase.
  | Number of super-cells (origin) [n_cells]                     :         729
  | Number of super-cells (after PM_index) [n_cells]             :         130
  | Number of super-cells in hamiltonian [n_cells_in_hamiltonian]:         130
  | Size of matrix packed + index [n_hamiltonian_matrix_size] :      523385
  | Estimated reciprocal-space cutoff momentum G_max:         3.23850208 bohr^-1 .
  | Reciprocal lattice points for long-range Hartree potential:     374
  Partitioning the integration grid into batches with parallel hashing+maxmin method.
  | Number of batches:      925
  | Maximal batch size:     105
  | Minimal batch size:       5
  | Average batch size:      72.649
  | Standard deviation of batch sizes:      12.691

  Integration load balanced across    40 MPI tasks.
  Work distribution over tasks is as follows:
  Task     0 has       1682 integration points.
  Task     1 has       1657 integration points.
  Task     2 has       1661 integration points.
  Task     3 has       1659 integration points.
  Task     4 has       1730 integration points.
  Task     5 has       1655 integration points.
  Task     6 has       1662 integration points.
  Task     7 has       1717 integration points.
  Task     8 has       1658 integration points.
  Task     9 has       1664 integration points.
  Task    10 has       1674 integration points.
  Task    11 has       1731 integration points.
  Task    12 has       1660 integration points.
  Task    13 has       1723 integration points.
  Task    14 has       1661 integration points.
  Task    15 has       1655 integration points.
  Task    16 has       1654 integration points.
  Task    17 has       1655 integration points.
  Task    18 has       1654 integration points.
  Task    19 has       1656 integration points.
  Task    20 has       1724 integration points.
  Task    21 has       1657 integration points.
  Task    22 has       1658 integration points.
  Task    23 has       1653 integration points.
  Task    24 has       1711 integration points.
  Task    25 has       1732 integration points.
  Task    26 has       1731 integration points.
  Task    27 has       1702 integration points.
  Task    28 has       1660 integration points.
  Task    29 has       1734 integration points.
  Task    30 has       1707 integration points.
  Task    31 has       1656 integration points.
  Task    32 has       1707 integration points.
  Task    33 has       1652 integration points.
  Task    34 has       1718 integration points.
  Task    35 has       1655 integration points.
  Task    36 has       1707 integration points.
  Task    37 has       1657 integration points.
  Task    38 has       1652 integration points.
  Task    39 has       1659 integration points.
  Initializing partition tables, free-atom densities, potentials, etc. across the integration grid (initialize_grid_storage).
  | initialize_grid_storage: Actual outermost partition radius vs. multipole_radius_free
  | (-- VB: in principle, multipole_radius_free should be larger, hence this output)
  | Species        1: Confinement radius =              4.999999999999999 AA, multipole_radius_free =              5.022921912105459 AA.
  | Species        1: outer_partition_radius set to              5.022921912105459 AA .
  | Species        2: Confinement radius =              4.999999999999999 AA, multipole_radius_free =              5.048384829883283 AA.
  | Species        2: outer_partition_radius set to              5.048384829883283 AA .
  | The sparse table of interatomic distances needs       2407.45 kbyte instead of      5352.99 kbyte of memory.
  | Net number of integration points:    67200
  | of which are non-zero points    :    54552
  | Numerical average free-atom electrostatic potential    :    -19.41742556 eV
  Renormalizing the initial density to the exact electron count on the 3D integration grid.
  | Initial density: Formal number of electrons (from input files) :     152.0000000000
  | Integrated number of electrons on 3D grid     :     152.0011739941
  | Charge integration error                      :       0.0011739941
  | Normalization factor for density and gradient :       0.9999922764
  Renormalizing the free-atom superposition density to the exact electron count on the 3D integration grid.
  | Formal number of electrons (from input files) :     152.0000000000
  | Integrated number of electrons on 3D grid     :     152.0006130421
  | Charge integration error                      :       0.0006130421
  | Normalization factor for density and gradient :       0.9999959668
  Obtaining max. number of non-zero basis functions in each batch (get_n_compute_maxes).
  | Maximal number of non-zero basis functions:      883 in task     0
  | Maximal number of non-zero basis functions:      878 in task     1
  | Maximal number of non-zero basis functions:      883 in task     2
  | Maximal number of non-zero basis functions:      862 in task     3
  | Maximal number of non-zero basis functions:      883 in task     4
  | Maximal number of non-zero basis functions:      864 in task     5
  | Maximal number of non-zero basis functions:      866 in task     6
  | Maximal number of non-zero basis functions:      876 in task     7
  | Maximal number of non-zero basis functions:      909 in task     8
  | Maximal number of non-zero basis functions:      876 in task     9
  | Maximal number of non-zero basis functions:      891 in task    10
  | Maximal number of non-zero basis functions:      868 in task    11
  | Maximal number of non-zero basis functions:      870 in task    12
  | Maximal number of non-zero basis functions:      868 in task    13
  | Maximal number of non-zero basis functions:      869 in task    14
  | Maximal number of non-zero basis functions:      863 in task    15
  | Maximal number of non-zero basis functions:      878 in task    16
  | Maximal number of non-zero basis functions:      860 in task    17
  | Maximal number of non-zero basis functions:      878 in task    18
  | Maximal number of non-zero basis functions:      863 in task    19
  | Maximal number of non-zero basis functions:      925 in task    20
  | Maximal number of non-zero basis functions:      876 in task    21
  | Maximal number of non-zero basis functions:      868 in task    22
  | Maximal number of non-zero basis functions:      876 in task    23
  | Maximal number of non-zero basis functions:      877 in task    24
  | Maximal number of non-zero basis functions:      875 in task    25
  | Maximal number of non-zero basis functions:      887 in task    26
  | Maximal number of non-zero basis functions:      869 in task    27
  | Maximal number of non-zero basis functions:      879 in task    28
  | Maximal number of non-zero basis functions:      878 in task    29
  | Maximal number of non-zero basis functions:      932 in task    30
  | Maximal number of non-zero basis functions:      886 in task    31
  | Maximal number of non-zero basis functions:      869 in task    32
  | Maximal number of non-zero basis functions:      874 in task    33
  | Maximal number of non-zero basis functions:      939 in task    34
  | Maximal number of non-zero basis functions:      873 in task    35
  | Maximal number of non-zero basis functions:      869 in task    36
  | Maximal number of non-zero basis functions:      909 in task    37
  | Maximal number of non-zero basis functions:      865 in task    38
  | Maximal number of non-zero basis functions:      939 in task    39
  Initialize hartree_potential_storage
  Max. number of atoms included in rho_multipole:           10

  Evaluating partitioned Hartree potential by multipole expansion.
  | Original multipole sum: apparent total charge =  -0.134796E-13
  | Sum of charges compensated after spline to logarithmic grids =  -0.620948E-04
  | Analytical far-field extrapolation by fixed multipoles:
  | Hartree multipole sum: apparent total charge =  -0.160377E-13
  Summing up the Hartree potential.
  | Ewald reciprocal-space coefficients, myid =     0 : cpu      0.002 s, wall      0.005 s.
  | Ewald reciprocal-space coefficients, myid =     1 : cpu      0.001 s, wall      0.005 s.
  | Ewald reciprocal-space coefficients, myid =     2 : cpu      0.001 s, wall      0.001 s.
  | Ewald reciprocal-space coefficients, myid =     3 : cpu      0.001 s, wall      0.005 s.
  | Ewald reciprocal-space coefficients, myid =     4 : cpu      0.001 s, wall      0.005 s.
  | Ewald reciprocal-space coefficients, myid =     5 : cpu      0.001 s, wall      0.005 s.
  | Ewald reciprocal-space coefficients, myid =     6 : cpu      0.001 s, wall      0.005 s.
  | Ewald reciprocal-space coefficients, myid =     7 : cpu      0.000 s, wall      0.000 s.
  | Ewald reciprocal-space coefficients, myid =     8 : cpu      0.000 s, wall      0.000 s.
  | Ewald reciprocal-space coefficients, myid =     9 : cpu      0.002 s, wall      0.005 s.
  | Ewald reciprocal-space coefficients, myid =    10 : cpu      0.002 s, wall      0.003 s.
  | Ewald reciprocal-space coefficients, myid =    11 : cpu      0.000 s, wall      0.001 s.
  | Ewald reciprocal-space coefficients, myid =    12 : cpu      0.000 s, wall      0.000 s.
  | Ewald reciprocal-space coefficients, myid =    13 : cpu      0.002 s, wall      0.002 s.
  | Ewald reciprocal-space coefficients, myid =    14 : cpu      0.002 s, wall      0.002 s.
  | Ewald reciprocal-space coefficients, myid =    15 : cpu      0.002 s, wall      0.002 s.
  | Ewald reciprocal-space coefficients, myid =    16 : cpu      0.002 s, wall      0.003 s.
  | Ewald reciprocal-space coefficients, myid =    17 : cpu      0.000 s, wall      0.000 s.
  | Ewald reciprocal-space coefficients, myid =    18 : cpu      0.000 s, wall      0.000 s.
  | Ewald reciprocal-space coefficients, myid =    19 : cpu      0.003 s, wall      0.005 s.
  | Ewald reciprocal-space coefficients, myid =    20 : cpu      0.001 s, wall      0.001 s.
  | Ewald reciprocal-space coefficients, myid =    21 : cpu      0.001 s, wall      0.002 s.
  | Ewald reciprocal-space coefficients, myid =    22 : cpu      0.003 s, wall      0.003 s.
  | Ewald reciprocal-space coefficients, myid =    23 : cpu      0.002 s, wall      0.005 s.
  | Ewald reciprocal-space coefficients, myid =    24 : cpu      0.003 s, wall      0.003 s.
  | Ewald reciprocal-space coefficients, myid =    25 : cpu      0.004 s, wall      0.005 s.
  | Ewald reciprocal-space coefficients, myid =    26 : cpu      0.003 s, wall      0.003 s.
  | Ewald reciprocal-space coefficients, myid =    27 : cpu      0.000 s, wall      0.001 s.
  | Ewald reciprocal-space coefficients, myid =    28 : cpu      0.001 s, wall      0.001 s.
  | Ewald reciprocal-space coefficients, myid =    29 : cpu      0.003 s, wall      0.003 s.
  | Ewald reciprocal-space coefficients, myid =    30 : cpu      0.004 s, wall      0.005 s.
  | Ewald reciprocal-space coefficients, myid =    31 : cpu      0.004 s, wall      0.005 s.
  | Ewald reciprocal-space coefficients, myid =    32 : cpu      0.002 s, wall      0.002 s.
  | Ewald reciprocal-space coefficients, myid =    33 : cpu      0.002 s, wall      0.002 s.
  | Ewald reciprocal-space coefficients, myid =    34 : cpu      0.001 s, wall      0.001 s.
  | Ewald reciprocal-space coefficients, myid =    35 : cpu      0.003 s, wall      0.005 s.
  | Ewald reciprocal-space coefficients, myid =    36 : cpu      0.001 s, wall      0.001 s.
  | Ewald reciprocal-space coefficients, myid =    37 : cpu      0.000 s, wall      0.001 s.
  | Ewald reciprocal-space coefficients, myid =    38 : cpu      0.001 s, wall      0.001 s.
  | Ewald reciprocal-space coefficients, myid =    39 : cpu      0.001 s, wall      0.001 s.
  Time summed over all CPUs for potential: real work        5.081 s, elapsed        5.306 s
  | RMS charge density error from multipole expansion :   0.272226E-01
  | Average real-space part of the electrostatic potential :     -0.95791271 eV

  Allocating        8.836 MB for KS_eigenvector_complex
  Integrating Hamiltonian matrix: batch-based integration.
  Time summed over all CPUs for integration: real work       23.603 s, elapsed       25.057 s
  Integrating overlap matrix.
  Time summed over all CPUs for integration: real work        7.891 s, elapsed        8.413 s
  Decreasing sparse matrix size:
  | Tolerance:  0.1000E-12
  Hamiltonian matrix
  | Array has   455904 nonzero elements out of   523385 elements
  | Sparsity factor is 0.129
  Overlap matrix
  | Array has   420300 nonzero elements out of   523385 elements
  | Sparsity factor is 0.197
  New size of hamiltonian matrix:      455985

  Updating Kohn-Sham eigenvalues and eigenvectors using ELSI and the (modified) LAPACK eigensolver.
  Singularity check in k-point 40, task 0 (analysis for other k-points/tasks may follow below):
  Overlap matrix is not singular
  | Lowest and highest eigenvalues :  0.1335E-02,  0.7777E+01
  Finished singularity check of overlap matrix
  | Time :     0.059 s
  Starting LAPACK eigensolver
  Finished Cholesky decomposition
  | Time :     0.019 s
  Finished transformation to standard eigenproblem
  | Time :     0.001 s
  Finished solving standard eigenproblem
  | Time :     0.006 s
  Finished back-transformation of eigenvectors
  | Time :     0.001 s

  Obtaining occupation numbers and chemical potential using ELSI.
  | Chemical potential (Fermi level):   -10.84761743 eV
  Writing Kohn-Sham eigenvalues.

  Spin-up eigenvalues:
  K-point:       1 at    0.000000    0.000000    0.000000 (in units of recip. lattice)

  State    Occupation    Eigenvalue [Ha]    Eigenvalue [eV]
      1       1.00000        -259.495347        -7061.22766
      2       1.00000        -259.495346        -7061.22764
      3       1.00000        -259.492362        -7061.14644
      4       1.00000        -259.492361        -7061.14642
      5       1.00000         -30.650414         -834.04019
      6       1.00000         -30.650408         -834.04005
      7       1.00000         -30.559417         -831.56405
      8       1.00000         -30.559417         -831.56405
      9       1.00000         -26.183931         -712.50100
     10       1.00000         -26.183930         -712.50100
     11       1.00000         -26.183929         -712.50097
     12       1.00000         -26.183929         -712.50097
     13       1.00000         -26.183808         -712.49766
     14       1.00000         -26.183807         -712.49764
     15       1.00000         -26.114142         -710.60195
     16       1.00000         -26.114141         -710.60194
     17       1.00000         -26.114141         -710.60194
     18       1.00000         -26.114141         -710.60194
     19       1.00000         -26.114020         -710.59865
     20       1.00000         -26.114020         -710.59865
     21       1.00000         -18.843465         -512.75677
     22       1.00000         -18.843465         -512.75677
     23       1.00000         -18.843464         -512.75676
     24       1.00000         -18.843464         -512.75675
     25       1.00000         -18.843455         -512.75649
     26       1.00000         -18.843455         -512.75649
     27       1.00000          -3.943927         -107.31971
     28       1.00000          -3.943859         -107.31786
     29       1.00000          -3.753301         -102.13250
     30       1.00000          -3.753168         -102.12891
     31       1.00000          -2.686976          -73.11634
     32       1.00000          -2.686976          -73.11633
     33       1.00000          -2.686273          -73.09720
     34       1.00000          -2.686272          -73.09719
     35       1.00000          -2.684762          -73.05608
     36       1.00000          -2.684751          -73.05579
     37       1.00000          -2.499880          -68.02519
     38       1.00000          -2.499879          -68.02517
     39       1.00000          -2.498999          -68.00123
     40       1.00000          -2.498999          -68.00122
     41       1.00000          -2.497493          -67.96024
     42       1.00000          -2.497406          -67.95788
     43       1.00000          -1.016498          -27.66031
     44       1.00000          -0.957723          -26.06096
     45       1.00000          -0.957716          -26.06077
     46       1.00000          -0.955101          -25.98962
     47       1.00000          -0.952828          -25.92777
     48       1.00000          -0.952820          -25.92755
     49       1.00000          -0.727826          -19.80514
     50       1.00000          -0.727823          -19.80508
     51       1.00000          -0.725720          -19.74784
     52       1.00000          -0.719239          -19.57150
     53       1.00000          -0.719239          -19.57148
     54       1.00000          -0.718082          -19.54000
     55       1.00000          -0.718080          -19.53995
     56       1.00000          -0.709822          -19.31524
     57       1.00000          -0.708924          -19.29080
     58       1.00000          -0.708922          -19.29074
     59       1.00000          -0.590541          -16.06943
     60       1.00000          -0.568064          -15.45781
     61       1.00000          -0.568061          -15.45771
     62       1.00000          -0.556877          -15.15339
     63       1.00000          -0.556875          -15.15335
     64       1.00000          -0.553182          -15.05286
     65       1.00000          -0.552377          -15.03094
     66       1.00000          -0.552376          -15.03093
     67       1.00000          -0.538043          -14.64089
     68       1.00000          -0.538040          -14.64080
     69       1.00000          -0.511701          -13.92408
     70       1.00000          -0.497932          -13.54941
     71       1.00000          -0.482470          -13.12868
     72       1.00000          -0.482470          -13.12866
     73       1.00000          -0.453907          -12.35144
     74       1.00000          -0.433337          -11.79171
     75       1.00000          -0.415404          -11.30371
     76       1.00000          -0.410267          -11.16392
     77       1.00000          -0.410265          -11.16387
     78       0.00000          -0.351960           -9.57731
     79       0.00000          -0.351957           -9.57723
     80       0.00000          -0.337567           -9.18568
     81       0.00000          -0.330795           -9.00139
     82       0.00000          -0.330785           -9.00113
     83       0.00000          -0.325495           -8.85717
     84       0.00000          -0.325489           -8.85701
     85       0.00000          -0.307321           -8.36263
     86       0.00000          -0.307319           -8.36257
     87       0.00000          -0.121618           -3.30940
     88       0.00000           0.046296            1.25977
     89       0.00000           0.074583            2.02950
     90       0.00000           0.127763            3.47660
     91       0.00000           0.127781            3.47710
     92       0.00000           0.129374            3.52045
     93       0.00000           0.159100            4.32933
     94       0.00000           0.167825            4.56676
     95       0.00000           0.182369            4.96251
     96       0.00000           0.182376            4.96270
     97       0.00000           0.205498            5.59190
     98       0.00000           0.229161            6.23579
     99       0.00000           0.229181            6.23634
    100       0.00000           0.255633            6.95613
    101       0.00000           0.255638            6.95627
    102       0.00000           0.344777            9.38186
    103       0.00000           0.364477            9.91792
    104       0.00000           0.482244           13.12252
    105       0.00000           0.482251           13.12271
    106       0.00000           0.513758           13.98006
    107       0.00000           0.513798           13.98117
    108       0.00000           0.528079           14.36976
    109       0.00000           0.566962           15.42782
    110       0.00000           0.613934           16.70600
    111       0.00000           0.613950           16.70642
    112       0.00000           0.614497           16.72132
    113       0.00000           0.614938           16.73330
    114       0.00000           0.614944           16.73347
    115       0.00000           0.730650           19.88201
    116       0.00000           0.730669           19.88250

  Spin-down eigenvalues:
  K-point:       1 at    0.000000    0.000000    0.000000 (in units of recip. lattice)

  State    Occupation    Eigenvalue [Ha]    Eigenvalue [eV]
      1       1.00000        -259.495347        -7061.22766
      2       1.00000        -259.495346        -7061.22764
      3       1.00000        -259.492362        -7061.14644
      4       1.00000        -259.492361        -7061.14642
      5       1.00000         -30.650414         -834.04019
      6       1.00000         -30.650408         -834.04005
      7       1.00000         -30.559417         -831.56405
      8       1.00000         -30.559417         -831.56405
      9       1.00000         -26.183931         -712.50100
     10       1.00000         -26.183930         -712.50100
     11       1.00000         -26.183929         -712.50097
     12       1.00000         -26.183929         -712.50097
     13       1.00000         -26.183808         -712.49766
     14       1.00000         -26.183807         -712.49764
     15       1.00000         -26.114142         -710.60195
     16       1.00000         -26.114141         -710.60194
     17       1.00000         -26.114141         -710.60194
     18       1.00000         -26.114141         -710.60194
     19       1.00000         -26.114020         -710.59865
     20       1.00000         -26.114020         -710.59865
     21       1.00000         -18.843465         -512.75677
     22       1.00000         -18.843465         -512.75677
     23       1.00000         -18.843464         -512.75676
     24       1.00000         -18.843464         -512.75675
     25       1.00000         -18.843455         -512.75649
     26       1.00000         -18.843455         -512.75649
     27       1.00000          -3.943927         -107.31971
     28       1.00000          -3.943859         -107.31786
     29       1.00000          -3.753301         -102.13250
     30       1.00000          -3.753168         -102.12891
     31       1.00000          -2.686976          -73.11634
     32       1.00000          -2.686976          -73.11633
     33       1.00000          -2.686273          -73.09720
     34       1.00000          -2.686272          -73.09719
     35       1.00000          -2.684762          -73.05608
     36       1.00000          -2.684751          -73.05579
     37       1.00000          -2.499880          -68.02519
     38       1.00000          -2.499879          -68.02517
     39       1.00000          -2.498999          -68.00123
     40       1.00000          -2.498999          -68.00122
     41       1.00000          -2.497493          -67.96024
     42       1.00000          -2.497406          -67.95788
     43       1.00000          -1.016498          -27.66031
     44       1.00000          -0.957723          -26.06096
     45       1.00000          -0.957716          -26.06077
     46       1.00000          -0.955101          -25.98962
     47       1.00000          -0.952828          -25.92777
     48       1.00000          -0.952820          -25.92755
     49       1.00000          -0.727826          -19.80514
     50       1.00000          -0.727823          -19.80508
     51       1.00000          -0.725720          -19.74784
     52       1.00000          -0.719239          -19.57150
     53       1.00000          -0.719239          -19.57148
     54       1.00000          -0.718082          -19.54000
     55       1.00000          -0.718080          -19.53995
     56       1.00000          -0.709822          -19.31524
     57       1.00000          -0.708924          -19.29080
     58       1.00000          -0.708922          -19.29074
     59       1.00000          -0.590541          -16.06943
     60       1.00000          -0.568064          -15.45781
     61       1.00000          -0.568061          -15.45771
     62       1.00000          -0.556877          -15.15339
     63       1.00000          -0.556875          -15.15335
     64       1.00000          -0.553182          -15.05286
     65       1.00000          -0.552377          -15.03094
     66       1.00000          -0.552376          -15.03093
     67       1.00000          -0.538043          -14.64089
     68       1.00000          -0.538040          -14.64080
     69       1.00000          -0.511701          -13.92408
     70       1.00000          -0.497932          -13.54941
     71       1.00000          -0.482470          -13.12868
     72       1.00000          -0.482470          -13.12866
     73       1.00000          -0.453907          -12.35144
     74       1.00000          -0.433337          -11.79171
     75       1.00000          -0.415404          -11.30371
     76       1.00000          -0.410267          -11.16392
     77       1.00000          -0.410265          -11.16387
     78       0.00000          -0.351960           -9.57731
     79       0.00000          -0.351957           -9.57723
     80       0.00000          -0.337567           -9.18568
     81       0.00000          -0.330795           -9.00139
     82       0.00000          -0.330785           -9.00113
     83       0.00000          -0.325495           -8.85717
     84       0.00000          -0.325489           -8.85701
     85       0.00000          -0.307321           -8.36263
     86       0.00000          -0.307319           -8.36257
     87       0.00000          -0.121618           -3.30940
     88       0.00000           0.046296            1.25977
     89       0.00000           0.074583            2.02950
     90       0.00000           0.127763            3.47660
     91       0.00000           0.127781            3.47710
     92       0.00000           0.129374            3.52045
     93       0.00000           0.159100            4.32933
     94       0.00000           0.167825            4.56676
     95       0.00000           0.182369            4.96251
     96       0.00000           0.182376            4.96270
     97       0.00000           0.205498            5.59190
     98       0.00000           0.229161            6.23579
     99       0.00000           0.229181            6.23634
    100       0.00000           0.255633            6.95613
    101       0.00000           0.255638            6.95627
    102       0.00000           0.344777            9.38186
    103       0.00000           0.364477            9.91792
    104       0.00000           0.482244           13.12252
    105       0.00000           0.482251           13.12271
    106       0.00000           0.513758           13.98006
    107       0.00000           0.513798           13.98117
    108       0.00000           0.528079           14.36976
    109       0.00000           0.566962           15.42782
    110       0.00000           0.613934           16.70600
    111       0.00000           0.613950           16.70642
    112       0.00000           0.614497           16.72132
    113       0.00000           0.614938           16.73330
    114       0.00000           0.614944           16.73347
    115       0.00000           0.730650           19.88201
    116       0.00000           0.730669           19.88250

  Current spin moment of the entire structure :
  | N = N_up - N_down (sum over all k points):         0.00000
  | S (sum over all k points)                :         0.00000

  What follows are estimated values for band gap, HOMO, LUMO, etc.
  | They are estimated on a discrete k-point grid and not necessarily exact.
  | For converged numbers, create a DOS and/or band structure plot on a denser k-grid.

  Highest occupied state (VBM) at    -10.85020900 eV (relative to internal zero)
  | Occupation number:      0.64300532
  | K-point:     423 at    0.600000    0.700000    0.500000 (in units of recip. lattice)
  | Spin channel:        2

  Lowest unoccupied state (CBM) at   -10.84369271 eV (relative to internal zero)
  | Occupation number:      0.28943385
  | K-point:     469 at    0.800000    0.500000    0.900000 (in units of recip. lattice)
  | Spin channel:        1

  ESTIMATED overall HOMO-LUMO gap:      0.00651629 eV between HOMO at k-point 423 and LUMO at k-point 469
  | This appears to be an indirect band gap.
  | Smallest direct gap :      0.08309504 eV for k_point 237 at    0.300000    0.400000    0.500000 (in units of recip. lattice)
  | Direct gap HOMO spin channel :     1
  | Direct gap LUMO spin channel :     1
  However, this system has fractional occupation numbers. Since we use a finite k-point grid,
  this material is metallic within the approximate finite broadening function (occupation_type)
  applied to determine the occupation numbers.
  Calculating total energy contributions from superposition of free atom densities.

  Total energy components:
  | Sum of eigenvalues            :       -3311.84533703 Ha      -90119.89687032 eV
  | XC energy correction          :        -267.55022578 Ha       -7280.41206687 eV
  | XC potential correction       :         349.94613903 Ha        9522.51894346 eV
  | Free-atom electrostatic energy:       -2365.87181248 Ha      -64378.64756699 eV
  | Hartree energy correction     :          36.16439849 Ha         984.08335248 eV
  | Entropy correction            :          -0.00000354 Ha          -0.00009621 eV
  | ---------------------------
  | Total energy                  :       -5559.15683777 Ha     -151272.35420824 eV
  | Total energy, T -> 0          :       -5559.15684130 Ha     -151272.35430446 eV  <-- do not rely on this value for anything but (periodic) metals
  | Electronic free energy        :       -5559.15684484 Ha     -151272.35440067 eV

  Derived energy quantities:
  | Kinetic energy                :        5615.00446487 Ha      152792.04546280 eV
  | Electrostatic energy          :      -10906.61107685 Ha     -296783.98760417 eV
  | Energy correction for multipole
  | error in Hartree potential    :          -0.08187040 Ha          -2.22780682 eV
  | Sum of eigenvalues per atom                           :       -9011.98968703 eV
  | Total energy (T->0) per atom                          :      -15127.23543045 eV  <-- do not rely on this value for anything but (periodic) metals
  | Electronic free energy per atom                       :      -15127.23544007 eV

  End scf initialization - timings             :  max(cpu_time)    wall_clock(cpu1)
  | Time for scf. initialization                :        1.919 s           2.293 s
  | Boundary condition initialization           :        0.144 s           0.169 s
  | Integration                                 :        0.768 s           0.891 s
  | Solution of K.-S. eqns.                     :        0.515 s           0.603 s
  | Grid partitioning                           :        0.077 s           0.083 s
  | Preloading free-atom quantities on grid     :        0.366 s           0.400 s
  | Free-atom superposition energy              :        0.024 s           0.027 s
  | Total energy evaluation                     :        0.005 s           0.009 s

  Partial memory accounting:
  | Current value for overall tracked memory usage:
  |   Minimum:       21.013 MB (on task  0)
  |   Maximum:       21.749 MB (on task  1)
  |   Average:       21.454 MB
  | Peak value for overall tracked memory usage:
  |   Minimum:       32.005 MB (on task 38 after allocating wave)
[...]
     86       0.00000          -0.159544           -4.34140
     87       0.00000          -0.095335           -2.59419
     88       0.00000           0.079796            2.17137
     89       0.00000           0.158442            4.31144
     90       0.00000           0.168396            4.58228
     91       0.00000           0.201253            5.47638
     92       0.00000           0.202137            5.50042
     93       0.00000           0.202153            5.50087
     94       0.00000           0.222550            6.05589
     95       0.00000           0.222554            6.05601
     96       0.00000           0.230052            6.26002
     97       0.00000           0.230092            6.26111
     98       0.00000           0.274319            7.46461
     99       0.00000           0.274332            7.46494
    100       0.00000           0.294491            8.01352
    101       0.00000           0.294500            8.01374
    102       0.00000           0.404326           11.00226
    103       0.00000           0.461804           12.56634
    104       0.00000           0.560438           15.25028
    105       0.00000           0.560455           15.25076
    106       0.00000           0.598134           16.27606
    107       0.00000           0.598185           16.27745
    108       0.00000           0.608279           16.55211
    109       0.00000           0.646125           17.58195
    110       0.00000           0.690286           18.78364
    111       0.00000           0.692826           18.85274
    112       0.00000           0.692843           18.85321
    113       0.00000           0.702816           19.12461
    114       0.00000           0.702819           19.12467
    115       0.00000           0.815325           22.18611
    116       0.00000           0.815363           22.18716

  Current spin moment of the entire structure :
  | N = N_up - N_down (sum over all k points):         0.00000
  | S (sum over all k points)                :         0.00000

  What follows are estimated values for band gap, HOMO, LUMO, etc.
  | They are estimated on a discrete k-point grid and not necessarily exact.
  | For converged numbers, create a DOS and/or band structure plot on a denser k-grid.

  Highest occupied state (VBM) at     -7.09420756 eV (relative to internal zero)
  | Occupation number:      1.00000000
  | K-point:     262 at    0.300000    0.700000    0.800000 (in units of recip. lattice)
  | Spin channel:        1

  Lowest unoccupied state (CBM) at    -6.74659064 eV (relative to internal zero)
  | Occupation number:      0.00000000
  | K-point:     503 at    0.900000    0.900000    0.500000 (in units of recip. lattice)
  | Spin channel:        1

  ESTIMATED overall HOMO-LUMO gap:      0.34761693 eV between HOMO at k-point 262 and LUMO at k-point 503
  | This appears to be an indirect band gap.
  | Smallest direct gap :      0.35661013 eV for k_point 262 at    0.300000    0.700000    0.800000 (in units of recip. lattice)
  | Direct gap HOMO spin channel :     1
  | Direct gap LUMO spin channel :     1
  The gap value is above 0.2 eV. Unless you are using a very sparse k-point grid,
  this system is most likely an insulator or a semiconductor.
  | Chemical Potential                          :    -7.04961658 eV

  Self-consistency cycle converged.


------------------------------------------------------------
  End self-consistency iteration #    28       :  max(cpu_time)    wall_clock(cpu1)
  | Time for this iteration                     :        1.248 s           1.250 s
  | Charge density update                       :        0.000 s           0.000 s
  | Density mixing                              :        0.209 s           0.209 s
  | Hartree multipole update                    :        0.001 s           0.002 s
  | Hartree multipole summation                 :        0.127 s           0.127 s
  | Integration                                 :        0.519 s           0.519 s
  | Solution of K.-S. eqns.                     :        0.384 s           0.385 s
  | Total energy evaluation                     :        0.004 s           0.003 s

  Partial memory accounting:
  | Current value for overall tracked memory usage:
  |   Minimum:       21.013 MB (on task  0)
  |   Maximum:       21.750 MB (on task  1)
  |   Average:       21.455 MB
  | Peak value for overall tracked memory usage:
  |   Minimum:       32.005 MB (on task 38 after allocating wave)
  |   Maximum:       33.803 MB (on task 20 after allocating wave)
  |   Average:       32.734 MB
  | Largest tracked array allocation so far:
  |   Minimum:        8.836 MB (KS_eigenvector_complex on task  0)
  |   Maximum:        9.572 MB (KS_eigenvector_complex on task  1)
  |   Average:        9.278 MB
  Note:  These values currently only include a subset of arrays which are explicitly tracked.
  The "true" memory usage will be greater.
------------------------------------------------------------

  Energy and forces in a compact form:
  | Total energy uncorrected      :         -0.151193947091394E+06 eV
  | Total energy corrected        :         -0.151193947091394E+06 eV  <-- do not rely on this value for anything but (periodic) metals
  | Electronic free energy        :         -0.151193947091394E+06 eV

  Calculating total density of states ...
  | Chemical potential is  -7.049617 eV.
  | writing DOS (shifted by electron chemical potential) to file KS_DOS_total_tetrahedron.dat
  | writing DOS (raw data) to file KS_DOS_total_raw_tetrahedron.dat
  ------------------------------------ 
  Start decomposition of the XC Energy 
  ------------------------------------ 
  X and C from original XC functional choice 
  Hartree-Fock Energy :          0.000000000 Ha              0.000000000 eV
  X Energy            :       -261.776304668 Ha          -7123.295679307 eV
  C Energy            :         -7.398499969 Ha           -201.323427367 eV
  Total XC Energy     :       -269.174804636 Ha          -7324.619106673 eV
  ------------------------------------ 
  LDA X and C from self-consistent density 
  X Energy LDA        :       -251.406935681 Ha          -6841.130792769 eV
  C Energy LDA        :        -12.235981639 Ha           -332.958001101 eV
  ------------------------------------ 
  End decomposition of the XC Energy 
  ------------------------------------ 

------------------------------------------------------------

  ------------------------------------------------------------
                   Starting Mulliken Analysis
  ------------------------------------------------------------

  Performing Mulliken charge analysis on all atoms.
  Full analysis (per state, per k-point, etc.) will NOT be written to separate file 'Mulliken.out'.
  This file can be requested by stating 'output mulliken' explicitly.
  Summary of the per-atom charge analysis:
  |
  |  atom       electrons          charge             l=0             l=1             l=2             l=3
  |     1       25.046572        0.953428        6.202629       12.396666        6.389972        0.057306
  |     2       25.046574        0.953426        6.202629       12.396666        6.389973        0.057306
  |     3       25.046572        0.953428        6.202629       12.396666        6.389972        0.057306
  |     4       25.046574        0.953426        6.202629       12.396666        6.389973        0.057306
  |     5        8.635992       -0.635992        3.836126        4.782300        0.017567
  |     6        8.635431       -0.635431        3.835772        4.782103        0.017556
  |     7        8.635431       -0.635431        3.835772        4.782103        0.017556
  |     8        8.635992       -0.635992        3.836126        4.782300        0.017567
  |     9        8.635431       -0.635431        3.835772        4.782103        0.017556
  |    10        8.635431       -0.635431        3.835772        4.782103        0.017556
  |
  | Total      152.000000        0.000000
 
  Summary of the per-atom spin analysis:
  |
  |  atom   spin      l=0         l=1         l=2         l=3
  |     1    3.467213    0.015818    0.034853    3.415537    0.001005
  |     2   -3.467212   -0.015818   -0.034853   -3.415536   -0.001005
  |     3    3.467213    0.015818    0.034853    3.415537    0.001005
  |     4   -3.467212   -0.015818   -0.034853   -3.415536   -0.001005
  |     5   -0.000000   -0.000000   -0.000000    0.000000
  |     6    0.000020    0.000002    0.000018    0.000000
  |     7   -0.000021   -0.000002   -0.000019   -0.000000
  |     8   -0.000000   -0.000000   -0.000000    0.000000
  |     9    0.000020    0.000002    0.000018    0.000000
  |    10   -0.000021   -0.000002   -0.000019   -0.000000
  |
  | Total    0.000000
 
  Calculating angular momentum projected density of states ...
  | Chemical potential is  -7.049617 eV.
  | writing  spin_up projected DOS (shifted by the chemical potential) for species Fe to file Fe_l_proj_dos_tetrahedron_spin_up.dat.
  | writing  spin_up projected DOS (raw data) for species Fe to file Fe_l_proj_dos_tetrahedron_spin_up_raw.dat.
  | writing  spin_dn projected DOS (shifted by the chemical potential) for species Fe to file Fe_l_proj_dos_tetrahedron_spin_dn.dat.
  | writing  spin_dn projected DOS (raw data) for species Fe to file Fe_l_proj_dos_tetrahedron_spin_dn_raw.dat.
  | writing  spin_up projected DOS (shifted by the chemical potential) for species O to file O_l_proj_dos_tetrahedron_spin_up.dat.
  | writing  spin_up projected DOS (raw data) for species O to file O_l_proj_dos_tetrahedron_spin_up_raw.dat.
  | writing  spin_dn projected DOS (shifted by the chemical potential) for species O to file O_l_proj_dos_tetrahedron_spin_dn.dat.
  | writing  spin_dn projected DOS (raw data) for species O to file O_l_proj_dos_tetrahedron_spin_dn_raw.dat.

  Mulliken analysis                                       :  max(cpu_time)    wall_clock(cpu1)
  | Time for Mulliken analysis                            :          6.583               6.598
  | Total time for Mulliken analysis                      :          6.583               6.598
------------------------------------------------------------

  -------------------------------------------------------------------
  Writing the requested band structure output (LAPACK version):
  -------------------------------------------------------------------

  Integrating Hamiltonian matrix: batch-based integration.
  Time summed over all CPUs for integration: real work       18.555 s, elapsed       19.882 s

  Treating all   23 k-points in band plot segment #   1:


  "Band gap" along reciprocal space direction number:    1
  | Lowest unoccupied state:      -6.71406198 eV
  | Highest occupied state :      -7.30577372 eV
  | Energy difference      :       0.59171175 eV


  Treating all   18 k-points in band plot segment #   2:


  "Band gap" along reciprocal space direction number:    2
  | Lowest unoccupied state:      -6.73352504 eV
  | Highest occupied state :      -7.29391592 eV
  | Energy difference      :       0.56039088 eV


  Treating all   20 k-points in band plot segment #   3:


  "Band gap" along reciprocal space direction number:    3
  | Lowest unoccupied state:      -6.69908976 eV
  | Highest occupied state :      -7.31875461 eV
  | Energy difference      :       0.61966484 eV


  Treating all   21 k-points in band plot segment #   4:


  "Band gap" along reciprocal space direction number:    4
  | Lowest unoccupied state:      -6.52349248 eV
  | Highest occupied state :      -7.27491850 eV
  | Energy difference      :       0.75142602 eV


  Treating all   28 k-points in band plot segment #   5:


  "Band gap" along reciprocal space direction number:    5
  | Lowest unoccupied state:      -6.70200215 eV
  | Highest occupied state :      -7.30273989 eV
  | Energy difference      :       0.60073774 eV


  Treating all   10 k-points in band plot segment #   6:


  "Band gap" along reciprocal space direction number:    6
  | Lowest unoccupied state:      -6.68938914 eV
  | Highest occupied state :      -7.35934045 eV
  | Energy difference      :       0.66995131 eV


  Treating all    8 k-points in band plot segment #   7:


  "Band gap" along reciprocal space direction number:    7
  | Lowest unoccupied state:      -6.66926081 eV
  | Highest occupied state :      -7.24694743 eV
  | Energy difference      :       0.57768662 eV


  Treating all   18 k-points in band plot segment #   8:


  "Band gap" along reciprocal space direction number:    8
  | Lowest unoccupied state:      -6.66926081 eV
  | Highest occupied state :      -7.24694743 eV
  | Energy difference      :       0.57768662 eV


  Treating all   15 k-points in band plot segment #   9:


  "Band gap" along reciprocal space direction number:    9
  | Lowest unoccupied state:      -6.74733888 eV
  | Highest occupied state :      -7.16890428 eV
  | Energy difference      :       0.42156540 eV

  "Band gap" of total set of bands:
  | Lowest unoccupied state:      -6.74733888 eV
  | Highest occupied state :      -7.16890428 eV
  | Energy difference      :       0.42156540 eV


  Band Structure                                          :  max(cpu_time) wall_clock(cpu1)
  | Total Time                                            :          0.846            0.886
------------------------------------------------------------

------------------------------------------------------------------------------
  Final output of selected total energy values:

  The following output summarizes some interesting total energy values
  at the end of a run (AFTER all relaxation, molecular dynamics, etc.).

  | Total energy of the DFT / Hartree-Fock s.c.f. calculation      :        -151193.947091394 eV
  | Final zero-broadening corrected energy (caution - metals only) :        -151193.947091394 eV
  | For reference only, the value of 1 Hartree used in FHI-aims is :             27.211384500 eV
  | For reference only, the overall average (free atom contribution
  | + realspace contribution) of the electrostatic potential after
  | s.c.f. convergence is                                          :            -18.856647299 eV

  Before relying on these values, please be sure to understand exactly which
  total energy value is referred to by a given number. Different objects may
  all carry the same name 'total energy'. Definitions:

  Total energy of the DFT / Hartree-Fock s.c.f. calculation:
  | Note that this energy does not include ANY quantities calculated after the
  | s.c.f. cycle, in particular not ANY RPA, MP2, etc. many-body perturbation terms.

  Final zero-broadening corrected energy:
  | For metallic systems only, a broadening of the occupation numbers at the Fermi
  | level can be extrapolated back to zero broadening by an electron-gas inspired
  | formula. For all systems that are not real metals, this value can be
  | meaningless and should be avoided.

------------------------------------------------------------------------------
  Methods described in the following list of references were used in this FHI-aims run.
  If you publish the results, please make sure to cite these reference if they apply.
  FHI-aims is an academic code, and for our developers (often, Ph.D. students
  and postdocs), scientific credit in the community is essential.
  Thank you for helping us!

  For any use of FHI-aims, please cite:

    Volker Blum, Ralf Gehrke, Felix Hanke, Paula Havu, Ville Havu,
    Xinguo Ren, Karsten Reuter, and Matthias Scheffler
    'Ab initio molecular simulations with numeric atom-centered orbitals'
    Computer Physics Communications 180, 2175-2196 (2009)
    http://dx.doi.org/10.1016/j.cpc.2009.06.022


  The provided symmetry information was generated with SPGlib:

    Atsushi Togo, Yusuke Seto, Dimitar Pashov
    SPGlib 1.7.3 obtained from http://spglib.sourceforge.net
    Copyright (C) 2008 Atsushi Togo


  The ELSI infrastructure was used in your run to solve the Kohn-Sham electronic structure.
  Please check out http://elsi-interchange.org to learn more.
  If scalability is important for your project, please acknowledge ELSI by citing:

    V. W-z. Yu, F. Corsetti, A. Garcia, W. P. Huhn, M. Jacquelin, W. Jia,
    B. Lange, L. Lin, J. Lu, W. Mi, A. Seifitokaldani, A. Vazquez-Mayagoitia,
    C. Yang, H. Yang, and V. Blum
    'ELSI: A unified software interface for Kohn-Sham electronic structure solvers'
    Computer Physics Communications 222, 267-285 (2018).
    http://dx.doi.org/10.1016/j.cpc.2017.09.007


  For the real-space grid partitioning and parallelization used in this calculation, please cite:

    Ville Havu, Volker Blum, Paula Havu, and Matthias Scheffler,
    'Efficient O(N) integration for all-electron electronic structure calculation'
    'using numerically tabulated basis functions'
    Journal of Computational Physics 228, 8367-8379 (2009).
    http://dx.doi.org/10.1016/j.jcp.2009.08.008

  Of course, there are many other important community references, e.g., those cited in the
  above references. Our list is limited to references that describe implementations in the
  FHI-aims code. The reason is purely practical (length of this list) - please credit others as well.

------------------------------------------------------------
          Leaving FHI-aims.
          Date     :  20220207, Time     :  130622.180

          Computational steps:
          | Number of self-consistency cycles          :           28
          | Number of SCF (re)initializations          :            1

          Detailed time accounting                     :  max(cpu_time)    wall_clock(cpu1)
          | Total time                                  :       71.113 s          73.501 s
          | Preparation time                            :        0.656 s           1.248 s
          | Boundary condition initalization            :        0.144 s           0.169 s
          | Grid partitioning                           :        0.077 s           0.083 s
          | Preloading free-atom quantities on grid     :        0.366 s           0.400 s
          | Free-atom superposition energy              :        0.024 s           0.027 s
          | Total time for integrations                 :       15.295 s          15.431 s
          | Total time for solution of K.-S. equations  :       11.339 s          11.436 s
          | Total time for density update               :       25.335 s          25.348 s
          | Total time for mixing & preconditioning     :        5.887 s           5.937 s
          | Total time for Hartree multipole update     :        0.043 s           0.039 s
          | Total time for Hartree multipole sum        :        3.707 s           3.716 s
          | Total time for total energy evaluation      :        0.106 s           0.103 s
          | Total time for scaled ZORA corrections      :        0.000 s           0.000 s
          | Total time for band structures, DOS         :        0.886 s           0.921 s
          | Total time for Mulliken analysis            :        6.583 s           6.598 s

          Partial memory accounting:
          | Residual value for overall tracked memory usage across tasks:     0.000000 MB (should be 0.000000 MB)
          | Peak values for overall tracked memory usage:
          |   Minimum:       32.005 MB (on task 38 after allocating wave)
          |   Maximum:       33.803 MB (on task 20 after allocating wave)
          |   Average:       32.734 MB
          | Largest tracked array allocation:
          |   Minimum:        8.836 MB (KS_eigenvector_complex on task  0)
          |   Maximum:        9.572 MB (KS_eigenvector_complex on task  1)
          |   Average:        9.278 MB
          Note:  These values currently only include a subset of arrays which are explicitly tracked.
          The "true" memory usage will be greater.

          Have a nice day.
------------------------------------------------------------
