   2   2   1   0
  0.2076168E+02  0.3462827E-09  0.3462827E-09  0.3462827E-09  0.5000000E-15
  1.000000000000000E-004
  CAR 
 unknown system                          
     14.08267914    -23.30030379  301      0.88960141      1.00000000
    -23.300  0.0000E+00  0.0000E+00
    -23.176  0.0000E+00  0.0000E+00
    -23.051  0.0000E+00  0.0000E+00
    -22.926  0.0000E+00  0.0000E+00
    -22.802  0.0000E+00  0.0000E+00
    -22.677  0.0000E+00  0.0000E+00
    -22.553  0.0000E+00  0.0000E+00
    -22.428  0.0000E+00  0.0000E+00
    -22.303  0.0000E+00  0.0000E+00
    -22.179  0.0000E+00  0.0000E+00
    -22.054  0.0000E+00  0.0000E+00
    -21.930  0.0000E+00  0.0000E+00
    -21.805  0.0000E+00  0.0000E+00
    -21.680  0.0000E+00  0.0000E+00
    -21.556  0.0000E+00  0.0000E+00
    -21.431  0.0000E+00  0.0000E+00
    -21.307  0.0000E+00  0.0000E+00
    -21.182  0.0000E+00  0.6000E+01
    -21.057  0.0000E+00  0.6000E+01
    -20.933  0.0000E+00  0.6000E+01
    -20.808  0.0000E+00  0.6000E+01
    -20.683  0.0000E+00  0.6000E+01
    -20.559  0.0000E+00  0.6000E+01
    -20.434  0.0000E+00  0.6000E+01
    -20.310  0.0000E+00  0.6000E+01
    -20.185  0.0000E+00  0.6000E+01
    -20.060  0.0000E+00  0.6000E+01
    -19.936  0.0000E+00  0.6000E+01
    -19.811  0.0000E+00  0.6000E+01
    -19.687  0.0000E+00  0.6000E+01
    -19.562  0.0000E+00  0.6000E+01
    -19.437  0.0000E+00  0.6000E+01
    -19.313  0.0000E+00  0.6000E+01
    -19.188  0.0000E+00  0.6000E+01
    -19.064  0.0000E+00  0.6000E+01
    -18.939  0.0000E+00  0.6000E+01
    -18.814  0.0000E+00  0.6000E+01
    -18.690  0.0000E+00  0.6000E+01
    -18.565  0.0000E+00  0.6000E+01
    -18.441  0.0000E+00  0.6000E+01
    -18.316  0.0000E+00  0.6000E+01
    -18.191  0.0000E+00  0.6000E+01
    -18.067  0.0000E+00  0.6000E+01
    -17.942  0.0000E+00  0.6000E+01
    -17.817  0.0000E+00  0.6000E+01
    -17.693  0.0000E+00  0.6000E+01
    -17.568  0.0000E+00  0.6000E+01
    -17.444  0.0000E+00  0.6000E+01
    -17.319  0.0000E+00  0.6000E+01
    -17.194  0.0000E+00  0.6000E+01
    -17.070  0.0000E+00  0.6000E+01
    -16.945  0.0000E+00  0.6000E+01
    -16.821  0.0000E+00  0.6000E+01
    -16.696  0.0000E+00  0.6000E+01
    -16.571  0.0000E+00  0.6000E+01
    -16.447  0.0000E+00  0.6000E+01
    -16.322  0.0000E+00  0.6000E+01
    -16.198  0.0000E+00  0.6000E+01
    -16.073  0.0000E+00  0.6000E+01
    -15.948  0.0000E+00  0.6000E+01
    -15.824  0.0000E+00  0.6000E+01
    -15.699  0.0000E+00  0.6000E+01
    -15.574  0.0000E+00  0.6000E+01
    -15.450  0.0000E+00  0.6000E+01
    -15.325  0.0000E+00  0.6000E+01
    -15.201  0.0000E+00  0.6000E+01
    -15.076  0.0000E+00  0.6000E+01
    -14.951  0.0000E+00  0.6000E+01
    -14.827  0.0000E+00  0.6000E+01
    -14.702  0.0000E+00  0.6000E+01
    -14.578  0.0000E+00  0.6000E+01
    -14.453  0.0000E+00  0.6000E+01
    -14.328  0.0000E+00  0.6000E+01
    -14.204  0.0000E+00  0.6000E+01
    -14.079  0.0000E+00  0.6000E+01
    -13.955  0.0000E+00  0.6000E+01
    -13.830  0.0000E+00  0.6000E+01
    -13.705  0.0000E+00  0.6000E+01
    -13.581  0.0000E+00  0.6000E+01
    -13.456  0.0000E+00  0.6000E+01
    -13.332  0.0000E+00  0.6000E+01
    -13.207  0.0000E+00  0.6000E+01
    -13.082  0.0000E+00  0.6000E+01
    -12.958  0.0000E+00  0.6000E+01
    -12.833  0.0000E+00  0.6000E+01
    -12.708  0.0000E+00  0.6000E+01
    -12.584  0.7892E+00  0.6056E+01
    -12.459  0.1458E+01  0.6193E+01
    -12.335  0.2843E+01  0.6445E+01
    -12.210  0.3803E+01  0.6908E+01
    -12.085  0.3795E+01  0.7382E+01
    -11.961  0.1981E+01  0.7773E+01
    -11.836  0.9103E+00  0.7945E+01
    -11.712  0.0000E+00  0.8000E+01
    -11.587  0.0000E+00  0.8000E+01
    -11.462  0.0000E+00  0.8000E+01
    -11.338  0.0000E+00  0.8000E+01
    -11.213  0.0000E+00  0.8000E+01
    -11.089  0.0000E+00  0.8000E+01
    -10.964  0.0000E+00  0.8000E+01
    -10.839  0.0000E+00  0.8000E+01
    -10.715  0.0000E+00  0.8000E+01
    -10.590  0.0000E+00  0.8000E+01
    -10.465  0.0000E+00  0.8000E+01
    -10.341  0.0000E+00  0.8000E+01
    -10.216  0.0000E+00  0.8000E+01
    -10.092  0.0000E+00  0.8000E+01
     -9.967  0.0000E+00  0.8000E+01
     -9.842  0.0000E+00  0.8000E+01
     -9.718  0.0000E+00  0.8000E+01
     -9.593  0.0000E+00  0.8000E+01
     -9.469  0.0000E+00  0.8000E+01
     -9.344  0.0000E+00  0.8000E+01
     -9.219  0.0000E+00  0.8000E+01
     -9.095  0.0000E+00  0.8000E+01
     -8.970  0.0000E+00  0.8000E+01
     -8.846  0.0000E+00  0.8000E+01
     -8.721  0.0000E+00  0.8000E+01
     -8.596  0.0000E+00  0.8000E+01
     -8.472  0.0000E+00  0.8000E+01
     -8.347  0.0000E+00  0.8000E+01
     -8.223  0.0000E+00  0.8000E+01
     -8.098  0.0000E+00  0.8000E+01
     -7.973  0.0000E+00  0.8000E+01
     -7.849  0.0000E+00  0.8000E+01
     -7.724  0.0000E+00  0.8000E+01
     -7.599  0.0000E+00  0.8000E+01
     -7.475  0.0000E+00  0.8000E+01
     -7.350  0.0000E+00  0.8000E+01
     -7.226  0.0000E+00  0.8000E+01
     -7.101  0.0000E+00  0.8000E+01
     -6.976  0.0000E+00  0.8000E+01
     -6.852  0.0000E+00  0.8000E+01
     -6.727  0.0000E+00  0.8000E+01
     -6.603  0.0000E+00  0.8000E+01
     -6.478  0.0000E+00  0.8000E+01
     -6.353  0.0000E+00  0.8000E+01
     -6.229  0.0000E+00  0.8000E+01
     -6.104  0.0000E+00  0.8000E+01
     -5.980  0.0000E+00  0.8000E+01
     -5.855  0.0000E+00  0.8000E+01
     -5.730  0.0000E+00  0.8000E+01
     -5.606  0.0000E+00  0.8000E+01
     -5.481  0.0000E+00  0.8000E+01
     -5.356  0.0000E+00  0.8000E+01
     -5.232  0.0000E+00  0.8000E+01
     -5.107  0.0000E+00  0.8000E+01
     -4.983  0.0000E+00  0.8000E+01
     -4.858  0.0000E+00  0.8000E+01
     -4.733  0.0000E+00  0.8000E+01
     -4.609  0.0000E+00  0.8000E+01
     -4.484  0.0000E+00  0.8000E+01
     -4.360  0.0000E+00  0.8000E+01
     -4.235  0.0000E+00  0.8000E+01
     -4.110  0.0000E+00  0.8000E+01
     -3.986  0.0000E+00  0.8000E+01
     -3.861  0.0000E+00  0.8000E+01
     -3.737  0.0000E+00  0.8000E+01
     -3.612  0.0000E+00  0.8000E+01
     -3.487  0.0000E+00  0.8000E+01
     -3.363  0.0000E+00  0.8000E+01
     -3.238  0.0000E+00  0.8000E+01
     -3.113  0.0000E+00  0.8000E+01
     -2.989  0.0000E+00  0.8000E+01
     -2.864  0.0000E+00  0.8000E+01
     -2.740  0.0000E+00  0.8000E+01
     -2.615  0.0000E+00  0.8000E+01
     -2.490  0.0000E+00  0.8000E+01
     -2.366  0.0000E+00  0.8000E+01
     -2.241  0.3061E+00  0.8009E+01
     -2.117  0.6434E+00  0.8071E+01
     -1.992  0.9582E+00  0.8171E+01
     -1.867  0.1257E+01  0.8309E+01
     -1.743  0.1671E+01  0.8489E+01
     -1.618  0.2677E+01  0.8742E+01
     -1.494  0.2846E+01  0.9110E+01
     -1.369  0.2916E+01  0.9462E+01
     -1.244  0.2799E+01  0.9818E+01
     -1.120  0.2403E+01  0.1015E+02
     -0.995  0.1960E+01  0.1042E+02
     -0.871  0.1860E+01  0.1067E+02
     -0.746  0.1857E+01  0.1090E+02
     -0.621  0.1694E+01  0.1113E+02
     -0.497  0.1688E+01  0.1134E+02
     -0.372  0.1764E+01  0.1157E+02
     -0.247  0.1873E+01  0.1179E+02
     -0.123  0.1815E+01  0.1202E+02
      0.002  0.1977E+01  0.1226E+02
      0.126  0.2335E+01  0.1252E+02
      0.251  0.2878E+01  0.1284E+02
      0.376  0.3225E+01  0.1323E+02
      0.500  0.2981E+01  0.1364E+02
      0.625  0.1326E+01  0.1388E+02
      0.749  0.3247E+00  0.1399E+02
      0.874  0.0000E+00  0.1400E+02
      0.999  0.0000E+00  0.1400E+02
      1.123  0.0000E+00  0.1400E+02
      1.248  0.0000E+00  0.1400E+02
      1.372  0.0000E+00  0.1400E+02
      1.497  0.0000E+00  0.1400E+02
      1.622  0.0000E+00  0.1400E+02
      1.746  0.0000E+00  0.1400E+02
      1.871  0.0000E+00  0.1400E+02
      1.996  0.0000E+00  0.1400E+02
      2.120  0.0000E+00  0.1400E+02
      2.245  0.0000E+00  0.1400E+02
      2.369  0.0000E+00  0.1400E+02
      2.494  0.0000E+00  0.1400E+02
      2.619  0.0000E+00  0.1400E+02
      2.743  0.0000E+00  0.1400E+02
      2.868  0.0000E+00  0.1400E+02
      2.992  0.0000E+00  0.1400E+02
      3.117  0.0000E+00  0.1400E+02
      3.242  0.0000E+00  0.1400E+02
      3.366  0.0000E+00  0.1400E+02
      3.491  0.0000E+00  0.1400E+02
      3.615  0.0000E+00  0.1400E+02
      3.740  0.0000E+00  0.1400E+02
      3.865  0.0000E+00  0.1400E+02
      3.989  0.0000E+00  0.1400E+02
      4.114  0.0000E+00  0.1400E+02
      4.238  0.0000E+00  0.1400E+02
      4.363  0.0000E+00  0.1400E+02
      4.488  0.0000E+00  0.1400E+02
      4.612  0.0000E+00  0.1400E+02
      4.737  0.0000E+00  0.1400E+02
      4.862  0.0000E+00  0.1400E+02
      4.986  0.1171E-01  0.1400E+02
      5.111  0.3271E-01  0.1400E+02
      5.235  0.4128E-01  0.1401E+02
      5.360  0.5615E-01  0.1401E+02
      5.485  0.6670E-01  0.1402E+02
      5.609  0.7864E-01  0.1403E+02
      5.734  0.9173E-01  0.1404E+02
      5.858  0.1054E+00  0.1405E+02
      5.983  0.1195E+00  0.1407E+02
      6.108  0.1342E+00  0.1408E+02
      6.232  0.1503E+00  0.1410E+02
      6.357  0.1874E+00  0.1412E+02
      6.481  0.3519E+00  0.1416E+02
      6.606  0.4275E+00  0.1420E+02
      6.731  0.5343E+00  0.1426E+02
      6.855  0.6073E+00  0.1433E+02
      6.980  0.6975E+00  0.1442E+02
      7.105  0.8012E+00  0.1451E+02
      7.229  0.9320E+00  0.1462E+02
      7.354  0.1078E+01  0.1474E+02
      7.478  0.1353E+01  0.1489E+02
      7.603  0.1887E+01  0.1509E+02
      7.728  0.2101E+01  0.1535E+02
      7.852  0.1767E+01  0.1559E+02
      7.977  0.9329E+00  0.1579E+02
      8.101  0.6906E+00  0.1589E+02
      8.226  0.6633E+00  0.1597E+02
      8.351  0.4616E+00  0.1605E+02
      8.475  0.3293E+00  0.1609E+02
      8.600  0.4428E+00  0.1613E+02
      8.724  0.1199E+02  0.1636E+02
      8.849  0.5162E+00  0.1820E+02
      8.974  0.6711E+00  0.1827E+02
      9.098  0.9007E+00  0.1837E+02
      9.223  0.1131E+01  0.1849E+02
      9.348  0.1552E+01  0.1866E+02
      9.472  0.1875E+01  0.1887E+02
      9.597  0.2353E+01  0.1913E+02
      9.721  0.2223E+01  0.1944E+02
      9.846  0.2088E+01  0.1971E+02
      9.971  0.2191E+01  0.1997E+02
     10.095  0.2060E+01  0.2024E+02
     10.220  0.1538E+01  0.2046E+02
     10.344  0.1283E+01  0.2063E+02
     10.469  0.1258E+01  0.2079E+02
     10.594  0.1373E+01  0.2095E+02
     10.718  0.1233E+01  0.2112E+02
     10.843  0.1037E+01  0.2126E+02
     10.967  0.9400E+00  0.2138E+02
     11.092  0.8715E+00  0.2149E+02
     11.217  0.8481E+00  0.2160E+02
     11.341  0.8260E+00  0.2170E+02
     11.466  0.6988E+00  0.2180E+02
     11.590  0.5808E+00  0.2188E+02
     11.715  0.4034E+00  0.2194E+02
     11.840  0.2150E+00  0.2198E+02
     11.964  0.7233E-01  0.2200E+02
     12.089  0.0000E+00  0.2200E+02
     12.214  0.0000E+00  0.2200E+02
     12.338  0.0000E+00  0.2200E+02
     12.463  0.0000E+00  0.2200E+02
     12.587  0.0000E+00  0.2200E+02
     12.712  0.0000E+00  0.2200E+02
     12.837  0.0000E+00  0.2200E+02
     12.961  0.0000E+00  0.2200E+02
     13.086  0.0000E+00  0.2200E+02
     13.210  0.0000E+00  0.2200E+02
     13.335  0.0000E+00  0.2200E+02
     13.460  0.0000E+00  0.2200E+02
     13.584  0.0000E+00  0.2200E+02
     13.709  0.0000E+00  0.2200E+02
     13.833  0.0000E+00  0.2200E+02
     13.958  0.0000E+00  0.2200E+02
     14.083  0.0000E+00  0.2200E+02
     14.08267914    -23.30030379  301      0.88960141      1.00000000
    -23.300  0.0000E+00  0.0000E+00  0.0000E+00  0.0000E+00  0.0000E+00  0.0000E+00  0.0000E+00  0.0000E+00  0.0000E+00
    -23.176  0.0000E+00  0.0000E+00  0.0000E+00  0.0000E+00  0.0000E+00  0.0000E+00  0.0000E+00  0.0000E+00  0.0000E+00
    -23.051  0.0000E+00  0.0000E+00  0.0000E+00  0.0000E+00  0.0000E+00  0.0000E+00  0.0000E+00  0.0000E+00  0.0000E+00
    -22.926  0.0000E+00  0.0000E+00  0.0000E+00  0.0000E+00  0.0000E+00  0.0000E+00  0.0000E+00  0.0000E+00  0.0000E+00
    -22.802  0.0000E+00  0.0000E+00  0.0000E+00  0.0000E+00  0.0000E+00  0.0000E+00  0.0000E+00  0.0000E+00  0.0000E+00
    -22.677  0.0000E+00  0.0000E+00  0.0000E+00  0.0000E+00  0.0000E+00  0.0000E+00  0.0000E+00  0.0000E+00  0.0000E+00
    -22.553  0.0000E+00  0.0000E+00  0.0000E+00  0.0000E+00  0.0000E+00  0.0000E+00  0.0000E+00  0.0000E+00  0.0000E+00
    -22.428  0.0000E+00  0.0000E+00  0.0000E+00  0.0000E+00  0.0000E+00  0.0000E+00  0.0000E+00  0.0000E+00  0.0000E+00
    -22.303  0.0000E+00  0.0000E+00  0.0000E+00  0.0000E+00  0.0000E+00  0.0000E+00  0.0000E+00  0.0000E+00  0.0000E+00
    -22.179  0.0000E+00  0.0000E+00  0.0000E+00  0.0000E+00  0.0000E+00  0.0000E+00  0.0000E+00  0.0000E+00  0.0000E+00
    -22.054  0.0000E+00  0.0000E+00  0.0000E+00  0.0000E+00  0.0000E+00  0.0000E+00  0.0000E+00  0.0000E+00  0.0000E+00
    -21.930  0.0000E+00  0.0000E+00  0.0000E+00  0.0000E+00  0.0000E+00  0.0000E+00  0.0000E+00  0.0000E+00  0.0000E+00
    -21.805  0.0000E+00  0.0000E+00  0.0000E+00  0.0000E+00  0.0000E+00  0.0000E+00  0.0000E+00  0.0000E+00  0.0000E+00
    -21.680  0.0000E+00  0.0000E+00  0.0000E+00  0.0000E+00  0.0000E+00  0.0000E+00  0.0000E+00  0.0000E+00  0.0000E+00
    -21.556  0.0000E+00  0.0000E+00  0.0000E+00  0.0000E+00  0.0000E+00  0.0000E+00  0.0000E+00  0.0000E+00  0.0000E+00
    -21.431  0.0000E+00  0.0000E+00  0.0000E+00  0.0000E+00  0.0000E+00  0.0000E+00  0.0000E+00  0.0000E+00  0.0000E+00
    -21.307  0.0000E+00  0.0000E+00  0.0000E+00  0.0000E+00  0.0000E+00  0.0000E+00  0.0000E+00  0.0000E+00  0.0000E+00
    -21.182  0.0000E+00  0.0000E+00  0.0000E+00  0.0000E+00  0.0000E+00  0.0000E+00  0.0000E+00  0.0000E+00  0.0000E+00
    -21.057  0.0000E+00  0.0000E+00  0.0000E+00  0.0000E+00  0.0000E+00  0.0000E+00  0.0000E+00  0.0000E+00  0.0000E+00
    -20.933  0.0000E+00  0.0000E+00  0.0000E+00  0.0000E+00  0.0000E+00  0.0000E+00  0.0000E+00  0.0000E+00  0.0000E+00
    -20.808  0.0000E+00  0.0000E+00  0.0000E+00  0.0000E+00  0.0000E+00  0.0000E+00  0.0000E+00  0.0000E+00  0.0000E+00
    -20.683  0.0000E+00  0.0000E+00  0.0000E+00  0.0000E+00  0.0000E+00  0.0000E+00  0.0000E+00  0.0000E+00  0.0000E+00
    -20.559  0.0000E+00  0.0000E+00  0.0000E+00  0.0000E+00  0.0000E+00  0.0000E+00  0.0000E+00  0.0000E+00  0.0000E+00
    -20.434  0.0000E+00  0.0000E+00  0.0000E+00  0.0000E+00  0.0000E+00  0.0000E+00  0.0000E+00  0.0000E+00  0.0000E+00
    -20.310  0.0000E+00  0.0000E+00  0.0000E+00  0.0000E+00  0.0000E+00  0.0000E+00  0.0000E+00  0.0000E+00  0.0000E+00
    -20.185  0.0000E+00  0.0000E+00  0.0000E+00  0.0000E+00  0.0000E+00  0.0000E+00  0.0000E+00  0.0000E+00  0.0000E+00
    -20.060  0.0000E+00  0.0000E+00  0.0000E+00  0.0000E+00  0.0000E+00  0.0000E+00  0.0000E+00  0.0000E+00  0.0000E+00
    -19.936  0.0000E+00  0.0000E+00  0.0000E+00  0.0000E+00  0.0000E+00  0.0000E+00  0.0000E+00  0.0000E+00  0.0000E+00
    -19.811  0.0000E+00  0.0000E+00  0.0000E+00  0.0000E+00  0.0000E+00  0.0000E+00  0.0000E+00  0.0000E+00  0.0000E+00
    -19.687  0.0000E+00  0.0000E+00  0.0000E+00  0.0000E+00  0.0000E+00  0.0000E+00  0.0000E+00  0.0000E+00  0.0000E+00
    -19.562  0.0000E+00  0.0000E+00  0.0000E+00  0.0000E+00  0.0000E+00  0.0000E+00  0.0000E+00  0.0000E+00  0.0000E+00
    -19.437  0.0000E+00  0.0000E+00  0.0000E+00  0.0000E+00  0.0000E+00  0.0000E+00  0.0000E+00  0.0000E+00  0.0000E+00
    -19.313  0.0000E+00  0.0000E+00  0.0000E+00  0.0000E+00  0.0000E+00  0.0000E+00  0.0000E+00  0.0000E+00  0.0000E+00
    -19.188  0.0000E+00  0.0000E+00  0.0000E+00  0.0000E+00  0.0000E+00  0.0000E+00  0.0000E+00  0.0000E+00  0.0000E+00
    -19.064  0.0000E+00  0.0000E+00  0.0000E+00  0.0000E+00  0.0000E+00  0.0000E+00  0.0000E+00  0.0000E+00  0.0000E+00
    -18.939  0.0000E+00  0.0000E+00  0.0000E+00  0.0000E+00  0.0000E+00  0.0000E+00  0.0000E+00  0.0000E+00  0.0000E+00
    -18.814  0.0000E+00  0.0000E+00  0.0000E+00  0.0000E+00  0.0000E+00  0.0000E+00  0.0000E+00  0.0000E+00  0.0000E+00
    -18.690  0.0000E+00  0.0000E+00  0.0000E+00  0.0000E+00  0.0000E+00  0.0000E+00  0.0000E+00  0.0000E+00  0.0000E+00
    -18.565  0.0000E+00  0.0000E+00  0.0000E+00  0.0000E+00  0.0000E+00  0.0000E+00  0.0000E+00  0.0000E+00  0.0000E+00
    -18.441  0.0000E+00  0.0000E+00  0.0000E+00  0.0000E+00  0.0000E+00  0.0000E+00  0.0000E+00  0.0000E+00  0.0000E+00
    -18.316  0.0000E+00  0.0000E+00  0.0000E+00  0.0000E+00  0.0000E+00  0.0000E+00  0.0000E+00  0.0000E+00  0.0000E+00
    -18.191  0.0000E+00  0.0000E+00  0.0000E+00  0.0000E+00  0.0000E+00  0.0000E+00  0.0000E+00  0.0000E+00  0.0000E+00
    -18.067  0.0000E+00  0.0000E+00  0.0000E+00  0.0000E+00  0.0000E+00  0.0000E+00  0.0000E+00  0.0000E+00  0.0000E+00
    -17.942  0.0000E+00  0.0000E+00  0.0000E+00  0.0000E+00  0.0000E+00  0.0000E+00  0.0000E+00  0.0000E+00  0.0000E+00
    -17.817  0.0000E+00  0.0000E+00  0.0000E+00  0.0000E+00  0.0000E+00  0.0000E+00  0.0000E+00  0.0000E+00  0.0000E+00
    -17.693  0.0000E+00  0.0000E+00  0.0000E+00  0.0000E+00  0.0000E+00  0.0000E+00  0.0000E+00  0.0000E+00  0.0000E+00
    -17.568  0.0000E+00  0.0000E+00  0.0000E+00  0.0000E+00  0.0000E+00  0.0000E+00  0.0000E+00  0.0000E+00  0.0000E+00
    -17.444  0.0000E+00  0.0000E+00  0.0000E+00  0.0000E+00  0.0000E+00  0.0000E+00  0.0000E+00  0.0000E+00  0.0000E+00
    -17.319  0.0000E+00  0.0000E+00  0.0000E+00  0.0000E+00  0.0000E+00  0.0000E+00  0.0000E+00  0.0000E+00  0.0000E+00
    -17.194  0.0000E+00  0.0000E+00  0.0000E+00  0.0000E+00  0.0000E+00  0.0000E+00  0.0000E+00  0.0000E+00  0.0000E+00
    -17.070  0.0000E+00  0.0000E+00  0.0000E+00  0.0000E+00  0.0000E+00  0.0000E+00  0.0000E+00  0.0000E+00  0.0000E+00
    -16.945  0.0000E+00  0.0000E+00  0.0000E+00  0.0000E+00  0.0000E+00  0.0000E+00  0.0000E+00  0.0000E+00  0.0000E+00
    -16.821  0.0000E+00  0.0000E+00  0.0000E+00  0.0000E+00  0.0000E+00  0.0000E+00  0.0000E+00  0.0000E+00  0.0000E+00
    -16.696  0.0000E+00  0.0000E+00  0.0000E+00  0.0000E+00  0.0000E+00  0.0000E+00  0.0000E+00  0.0000E+00  0.0000E+00
    -16.571  0.0000E+00  0.0000E+00  0.0000E+00  0.0000E+00  0.0000E+00  0.0000E+00  0.0000E+00  0.0000E+00  0.0000E+00
    -16.447  0.0000E+00  0.0000E+00  0.0000E+00  0.0000E+00  0.0000E+00  0.0000E+00  0.0000E+00  0.0000E+00  0.0000E+00
    -16.322  0.0000E+00  0.0000E+00  0.0000E+00  0.0000E+00  0.0000E+00  0.0000E+00  0.0000E+00  0.0000E+00  0.0000E+00
    -16.198  0.0000E+00  0.0000E+00  0.0000E+00  0.0000E+00  0.0000E+00  0.0000E+00  0.0000E+00  0.0000E+00  0.0000E+00
    -16.073  0.0000E+00  0.0000E+00  0.0000E+00  0.0000E+00  0.0000E+00  0.0000E+00  0.0000E+00  0.0000E+00  0.0000E+00
    -15.948  0.0000E+00  0.0000E+00  0.0000E+00  0.0000E+00  0.0000E+00  0.0000E+00  0.0000E+00  0.0000E+00  0.0000E+00
    -15.824  0.0000E+00  0.0000E+00  0.0000E+00  0.0000E+00  0.0000E+00  0.0000E+00  0.0000E+00  0.0000E+00  0.0000E+00
    -15.699  0.0000E+00  0.0000E+00  0.0000E+00  0.0000E+00  0.0000E+00  0.0000E+00  0.0000E+00  0.0000E+00  0.0000E+00
    -15.574  0.0000E+00  0.0000E+00  0.0000E+00  0.0000E+00  0.0000E+00  0.0000E+00  0.0000E+00  0.0000E+00  0.0000E+00
    -15.450  0.0000E+00  0.0000E+00  0.0000E+00  0.0000E+00  0.0000E+00  0.0000E+00  0.0000E+00  0.0000E+00  0.0000E+00
    -15.325  0.0000E+00  0.0000E+00  0.0000E+00  0.0000E+00  0.0000E+00  0.0000E+00  0.0000E+00  0.0000E+00  0.0000E+00
    -15.201  0.0000E+00  0.0000E+00  0.0000E+00  0.0000E+00  0.0000E+00  0.0000E+00  0.0000E+00  0.0000E+00  0.0000E+00
    -15.076  0.0000E+00  0.0000E+00  0.0000E+00  0.0000E+00  0.0000E+00  0.0000E+00  0.0000E+00  0.0000E+00  0.0000E+00
    -14.951  0.0000E+00  0.0000E+00  0.0000E+00  0.0000E+00  0.0000E+00  0.0000E+00  0.0000E+00  0.0000E+00  0.0000E+00
    -14.827  0.0000E+00  0.0000E+00  0.0000E+00  0.0000E+00  0.0000E+00  0.0000E+00  0.0000E+00  0.0000E+00  0.0000E+00
    -14.702  0.0000E+00  0.0000E+00  0.0000E+00  0.0000E+00  0.0000E+00  0.0000E+00  0.0000E+00  0.0000E+00  0.0000E+00
    -14.578  0.0000E+00  0.0000E+00  0.0000E+00  0.0000E+00  0.0000E+00  0.0000E+00  0.0000E+00  0.0000E+00  0.0000E+00
    -14.453  0.0000E+00  0.0000E+00  0.0000E+00  0.0000E+00  0.0000E+00  0.0000E+00  0.0000E+00  0.0000E+00  0.0000E+00
    -14.328  0.0000E+00  0.0000E+00  0.0000E+00  0.0000E+00  0.0000E+00  0.0000E+00  0.0000E+00  0.0000E+00  0.0000E+00
    -14.204  0.0000E+00  0.0000E+00  0.0000E+00  0.0000E+00  0.0000E+00  0.0000E+00  0.0000E+00  0.0000E+00  0.0000E+00
    -14.079  0.0000E+00  0.0000E+00  0.0000E+00  0.0000E+00  0.0000E+00  0.0000E+00  0.0000E+00  0.0000E+00  0.0000E+00
    -13.955  0.0000E+00  0.0000E+00  0.0000E+00  0.0000E+00  0.0000E+00  0.0000E+00  0.0000E+00  0.0000E+00  0.0000E+00
    -13.830  0.0000E+00  0.0000E+00  0.0000E+00  0.0000E+00  0.0000E+00  0.0000E+00  0.0000E+00  0.0000E+00  0.0000E+00
    -13.705  0.0000E+00  0.0000E+00  0.0000E+00  0.0000E+00  0.0000E+00  0.0000E+00  0.0000E+00  0.0000E+00  0.0000E+00
    -13.581  0.0000E+00  0.0000E+00  0.0000E+00  0.0000E+00  0.0000E+00  0.0000E+00  0.0000E+00  0.0000E+00  0.0000E+00
    -13.456  0.0000E+00  0.0000E+00  0.0000E+00  0.0000E+00  0.0000E+00  0.0000E+00  0.0000E+00  0.0000E+00  0.0000E+00
    -13.332  0.0000E+00  0.0000E+00  0.0000E+00  0.0000E+00  0.0000E+00  0.0000E+00  0.0000E+00  0.0000E+00  0.0000E+00
    -13.207  0.0000E+00  0.0000E+00  0.0000E+00  0.0000E+00  0.0000E+00  0.0000E+00  0.0000E+00  0.0000E+00  0.0000E+00
    -13.082  0.0000E+00  0.0000E+00  0.0000E+00  0.0000E+00  0.0000E+00  0.0000E+00  0.0000E+00  0.0000E+00  0.0000E+00
    -12.958  0.0000E+00  0.0000E+00  0.0000E+00  0.0000E+00  0.0000E+00  0.0000E+00  0.0000E+00  0.0000E+00  0.0000E+00
    -12.833  0.0000E+00  0.0000E+00  0.0000E+00  0.0000E+00  0.0000E+00  0.0000E+00  0.0000E+00  0.0000E+00  0.0000E+00
    -12.708  0.0000E+00  0.0000E+00  0.0000E+00  0.0000E+00  0.0000E+00  0.0000E+00  0.0000E+00  0.0000E+00  0.0000E+00
    -12.584  0.5945E+00  0.5786E-04  0.1792E-04  0.1434E-03  0.0000E+00  0.0000E+00  0.0000E+00  0.0000E+00  0.0000E+00
    -12.459  0.1114E+01  0.1778E-03  0.5700E-04  0.3683E-03  0.0000E+00  0.0000E+00  0.0000E+00  0.0000E+00  0.0000E+00
    -12.335  0.2203E+01  0.3979E-03  0.1362E-03  0.5394E-03  0.0000E+00  0.0000E+00  0.0000E+00  0.0000E+00  0.0000E+00
    -12.210  0.2989E+01  0.7418E-03  0.2905E-03  0.4146E-03  0.0000E+00  0.0000E+00  0.0000E+00  0.0000E+00  0.0000E+00
    -12.085  0.3024E+01  0.6389E-03  0.4200E-03  0.2406E-03  0.0000E+00  0.0000E+00  0.0000E+00  0.0000E+00  0.0000E+00
    -11.961  0.1600E+01  0.2361E-03  0.3896E-03  0.8054E-04  0.0000E+00  0.0000E+00  0.0000E+00  0.0000E+00  0.0000E+00
    -11.836  0.7452E+00  0.6256E-04  0.1451E-03  0.2023E-04  0.0000E+00  0.0000E+00  0.0000E+00  0.0000E+00  0.0000E+00
    -11.712  0.0000E+00  0.0000E+00  0.0000E+00  0.0000E+00  0.0000E+00  0.0000E+00  0.0000E+00  0.0000E+00  0.0000E+00
    -11.587  0.0000E+00  0.0000E+00  0.0000E+00  0.0000E+00  0.0000E+00  0.0000E+00  0.0000E+00  0.0000E+00  0.0000E+00
    -11.462  0.0000E+00  0.0000E+00  0.0000E+00  0.0000E+00  0.0000E+00  0.0000E+00  0.0000E+00  0.0000E+00  0.0000E+00
    -11.338  0.0000E+00  0.0000E+00  0.0000E+00  0.0000E+00  0.0000E+00  0.0000E+00  0.0000E+00  0.0000E+00  0.0000E+00
    -11.213  0.0000E+00  0.0000E+00  0.0000E+00  0.0000E+00  0.0000E+00  0.0000E+00  0.0000E+00  0.0000E+00  0.0000E+00
    -11.089  0.0000E+00  0.0000E+00  0.0000E+00  0.0000E+00  0.0000E+00  0.0000E+00  0.0000E+00  0.0000E+00  0.0000E+00
    -10.964  0.0000E+00  0.0000E+00  0.0000E+00  0.0000E+00  0.0000E+00  0.0000E+00  0.0000E+00  0.0000E+00  0.0000E+00
    -10.839  0.0000E+00  0.0000E+00  0.0000E+00  0.0000E+00  0.0000E+00  0.0000E+00  0.0000E+00  0.0000E+00  0.0000E+00
    -10.715  0.0000E+00  0.0000E+00  0.0000E+00  0.0000E+00  0.0000E+00  0.0000E+00  0.0000E+00  0.0000E+00  0.0000E+00
    -10.590  0.0000E+00  0.0000E+00  0.0000E+00  0.0000E+00  0.0000E+00  0.0000E+00  0.0000E+00  0.0000E+00  0.0000E+00
    -10.465  0.0000E+00  0.0000E+00  0.0000E+00  0.0000E+00  0.0000E+00  0.0000E+00  0.0000E+00  0.0000E+00  0.0000E+00
    -10.341  0.0000E+00  0.0000E+00  0.0000E+00  0.0000E+00  0.0000E+00  0.0000E+00  0.0000E+00  0.0000E+00  0.0000E+00
    -10.216  0.0000E+00  0.0000E+00  0.0000E+00  0.0000E+00  0.0000E+00  0.0000E+00  0.0000E+00  0.0000E+00  0.0000E+00
    -10.092  0.0000E+00  0.0000E+00  0.0000E+00  0.0000E+00  0.0000E+00  0.0000E+00  0.0000E+00  0.0000E+00  0.0000E+00
     -9.967  0.0000E+00  0.0000E+00  0.0000E+00  0.0000E+00  0.0000E+00  0.0000E+00  0.0000E+00  0.0000E+00  0.0000E+00
     -9.842  0.0000E+00  0.0000E+00  0.0000E+00  0.0000E+00  0.0000E+00  0.0000E+00  0.0000E+00  0.0000E+00  0.0000E+00
     -9.718  0.0000E+00  0.0000E+00  0.0000E+00  0.0000E+00  0.0000E+00  0.0000E+00  0.0000E+00  0.0000E+00  0.0000E+00
     -9.593  0.0000E+00  0.0000E+00  0.0000E+00  0.0000E+00  0.0000E+00  0.0000E+00  0.0000E+00  0.0000E+00  0.0000E+00
     -9.469  0.0000E+00  0.0000E+00  0.0000E+00  0.0000E+00  0.0000E+00  0.0000E+00  0.0000E+00  0.0000E+00  0.0000E+00
     -9.344  0.0000E+00  0.0000E+00  0.0000E+00  0.0000E+00  0.0000E+00  0.0000E+00  0.0000E+00  0.0000E+00  0.0000E+00
     -9.219  0.0000E+00  0.0000E+00  0.0000E+00  0.0000E+00  0.0000E+00  0.0000E+00  0.0000E+00  0.0000E+00  0.0000E+00
     -9.095  0.0000E+00  0.0000E+00  0.0000E+00  0.0000E+00  0.0000E+00  0.0000E+00  0.0000E+00  0.0000E+00  0.0000E+00
     -8.970  0.0000E+00  0.0000E+00  0.0000E+00  0.0000E+00  0.0000E+00  0.0000E+00  0.0000E+00  0.0000E+00  0.0000E+00
     -8.846  0.0000E+00  0.0000E+00  0.0000E+00  0.0000E+00  0.0000E+00  0.0000E+00  0.0000E+00  0.0000E+00  0.0000E+00
     -8.721  0.0000E+00  0.0000E+00  0.0000E+00  0.0000E+00  0.0000E+00  0.0000E+00  0.0000E+00  0.0000E+00  0.0000E+00
     -8.596  0.0000E+00  0.0000E+00  0.0000E+00  0.0000E+00  0.0000E+00  0.0000E+00  0.0000E+00  0.0000E+00  0.0000E+00
     -8.472  0.0000E+00  0.0000E+00  0.0000E+00  0.0000E+00  0.0000E+00  0.0000E+00  0.0000E+00  0.0000E+00  0.0000E+00
     -8.347  0.0000E+00  0.0000E+00  0.0000E+00  0.0000E+00  0.0000E+00  0.0000E+00  0.0000E+00  0.0000E+00  0.0000E+00
     -8.223  0.0000E+00  0.0000E+00  0.0000E+00  0.0000E+00  0.0000E+00  0.0000E+00  0.0000E+00  0.0000E+00  0.0000E+00
     -8.098  0.0000E+00  0.0000E+00  0.0000E+00  0.0000E+00  0.0000E+00  0.0000E+00  0.0000E+00  0.0000E+00  0.0000E+00
     -7.973  0.0000E+00  0.0000E+00  0.0000E+00  0.0000E+00  0.0000E+00  0.0000E+00  0.0000E+00  0.0000E+00  0.0000E+00
     -7.849  0.0000E+00  0.0000E+00  0.0000E+00  0.0000E+00  0.0000E+00  0.0000E+00  0.0000E+00  0.0000E+00  0.0000E+00
     -7.724  0.0000E+00  0.0000E+00  0.0000E+00  0.0000E+00  0.0000E+00  0.0000E+00  0.0000E+00  0.0000E+00  0.0000E+00
     -7.599  0.0000E+00  0.0000E+00  0.0000E+00  0.0000E+00  0.0000E+00  0.0000E+00  0.0000E+00  0.0000E+00  0.0000E+00
     -7.475  0.0000E+00  0.0000E+00  0.0000E+00  0.0000E+00  0.0000E+00  0.0000E+00  0.0000E+00  0.0000E+00  0.0000E+00
     -7.350  0.0000E+00  0.0000E+00  0.0000E+00  0.0000E+00  0.0000E+00  0.0000E+00  0.0000E+00  0.0000E+00  0.0000E+00
     -7.226  0.0000E+00  0.0000E+00  0.0000E+00  0.0000E+00  0.0000E+00  0.0000E+00  0.0000E+00  0.0000E+00  0.0000E+00
     -7.101  0.0000E+00  0.0000E+00  0.0000E+00  0.0000E+00  0.0000E+00  0.0000E+00  0.0000E+00  0.0000E+00  0.0000E+00
     -6.976  0.0000E+00  0.0000E+00  0.0000E+00  0.0000E+00  0.0000E+00  0.0000E+00  0.0000E+00  0.0000E+00  0.0000E+00
     -6.852  0.0000E+00  0.0000E+00  0.0000E+00  0.0000E+00  0.0000E+00  0.0000E+00  0.0000E+00  0.0000E+00  0.0000E+00
     -6.727  0.0000E+00  0.0000E+00  0.0000E+00  0.0000E+00  0.0000E+00  0.0000E+00  0.0000E+00  0.0000E+00  0.0000E+00
     -6.603  0.0000E+00  0.0000E+00  0.0000E+00  0.0000E+00  0.0000E+00  0.0000E+00  0.0000E+00  0.0000E+00  0.0000E+00
     -6.478  0.0000E+00  0.0000E+00  0.0000E+00  0.0000E+00  0.0000E+00  0.0000E+00  0.0000E+00  0.0000E+00  0.0000E+00
     -6.353  0.0000E+00  0.0000E+00  0.0000E+00  0.0000E+00  0.0000E+00  0.0000E+00  0.0000E+00  0.0000E+00  0.0000E+00
     -6.229  0.0000E+00  0.0000E+00  0.0000E+00  0.0000E+00  0.0000E+00  0.0000E+00  0.0000E+00  0.0000E+00  0.0000E+00
     -6.104  0.0000E+00  0.0000E+00  0.0000E+00  0.0000E+00  0.0000E+00  0.0000E+00  0.0000E+00  0.0000E+00  0.0000E+00
     -5.980  0.0000E+00  0.0000E+00  0.0000E+00  0.0000E+00  0.0000E+00  0.0000E+00  0.0000E+00  0.0000E+00  0.0000E+00
     -5.855  0.0000E+00  0.0000E+00  0.0000E+00  0.0000E+00  0.0000E+00  0.0000E+00  0.0000E+00  0.0000E+00  0.0000E+00
     -5.730  0.0000E+00  0.0000E+00  0.0000E+00  0.0000E+00  0.0000E+00  0.0000E+00  0.0000E+00  0.0000E+00  0.0000E+00
     -5.606  0.0000E+00  0.0000E+00  0.0000E+00  0.0000E+00  0.0000E+00  0.0000E+00  0.0000E+00  0.0000E+00  0.0000E+00
     -5.481  0.0000E+00  0.0000E+00  0.0000E+00  0.0000E+00  0.0000E+00  0.0000E+00  0.0000E+00  0.0000E+00  0.0000E+00
     -5.356  0.0000E+00  0.0000E+00  0.0000E+00  0.0000E+00  0.0000E+00  0.0000E+00  0.0000E+00  0.0000E+00  0.0000E+00
     -5.232  0.0000E+00  0.0000E+00  0.0000E+00  0.0000E+00  0.0000E+00  0.0000E+00  0.0000E+00  0.0000E+00  0.0000E+00
     -5.107  0.0000E+00  0.0000E+00  0.0000E+00  0.0000E+00  0.0000E+00  0.0000E+00  0.0000E+00  0.0000E+00  0.0000E+00
     -4.983  0.0000E+00  0.0000E+00  0.0000E+00  0.0000E+00  0.0000E+00  0.0000E+00  0.0000E+00  0.0000E+00  0.0000E+00
     -4.858  0.0000E+00  0.0000E+00  0.0000E+00  0.0000E+00  0.0000E+00  0.0000E+00  0.0000E+00  0.0000E+00  0.0000E+00
     -4.733  0.0000E+00  0.0000E+00  0.0000E+00  0.0000E+00  0.0000E+00  0.0000E+00  0.0000E+00  0.0000E+00  0.0000E+00
     -4.609  0.0000E+00  0.0000E+00  0.0000E+00  0.0000E+00  0.0000E+00  0.0000E+00  0.0000E+00  0.0000E+00  0.0000E+00
     -4.484  0.0000E+00  0.0000E+00  0.0000E+00  0.0000E+00  0.0000E+00  0.0000E+00  0.0000E+00  0.0000E+00  0.0000E+00
     -4.360  0.0000E+00  0.0000E+00  0.0000E+00  0.0000E+00  0.0000E+00  0.0000E+00  0.0000E+00  0.0000E+00  0.0000E+00
     -4.235  0.0000E+00  0.0000E+00  0.0000E+00  0.0000E+00  0.0000E+00  0.0000E+00  0.0000E+00  0.0000E+00  0.0000E+00
     -4.110  0.0000E+00  0.0000E+00  0.0000E+00  0.0000E+00  0.0000E+00  0.0000E+00  0.0000E+00  0.0000E+00  0.0000E+00
     -3.986  0.0000E+00  0.0000E+00  0.0000E+00  0.0000E+00  0.0000E+00  0.0000E+00  0.0000E+00  0.0000E+00  0.0000E+00
     -3.861  0.0000E+00  0.0000E+00  0.0000E+00  0.0000E+00  0.0000E+00  0.0000E+00  0.0000E+00  0.0000E+00  0.0000E+00