 vasp.5.3.2 13Sep12 (build Apr 01 2013 09:32:17) complex                        
  
 POSCAR found type information on POSCAR  Cl Na
 POSCAR found :  2 types and       2 ions

 ----------------------------------------------------------------------------- 
|                                                                             |
|           W    W    AA    RRRRR   N    N  II  N    N   GGGG   !!!           |
|           W    W   A  A   R    R  NN   N  II  NN   N  G    G  !!!           |
|           W    W  A    A  R    R  N N  N  II  N N  N  G       !!!           |
|           W WW W  AAAAAA  RRRRR   N  N N  II  N  N N  G  GGG   !            |
|           WW  WW  A    A  R   R   N   NN  II  N   NN  G    G                |
|           W    W  A    A  R    R  N    N  II  N    N   GGGG   !!!           |
|                                                                             |
|      For LVTOT=.TRUE. VASP.5.x writes the TOTAL local potential to          |
|      the file LOCPOT. If you want the Hartree contributions only, use       |
|      LVHAR=.TRUE. instead.                                                  |
|                                                                             |
 ----------------------------------------------------------------------------- 

 LDA part: xc-table for Pade appr. of Perdew
 POSCAR, INCAR and KPOINTS ok, starting setup
 WARNING: small aliasing (wrap around) errors must be expected
 FFT: planning ...
 WAVECAR not read
 WARNING: chargedensity file is incomplete
 WARNING: random wavefunctions but no delay for mixing, default for NELMDL
 entering main loop
       N       E                     dE             d eps       ncg     rms          rms(c)
DAV:   1     0.921206485899E+02    0.92121E+02   -0.71791E+03  3633   0.127E+03
DAV:   2     0.381674622565E+00   -0.91739E+02   -0.83705E+02  4332   0.264E+02
DAV:   3    -0.656804208843E+01   -0.69497E+01   -0.68936E+01  4458   0.751E+01
DAV:   4    -0.670893558870E+01   -0.14089E+00   -0.14058E+00  4807   0.105E+01
DAV:   5    -0.671140324579E+01   -0.24677E-02   -0.24647E-02  4546   0.129E+00    0.185E+00
RMM:   6    -0.649768282661E+01    0.21372E+00   -0.37142E-01  4295   0.310E+00    0.848E-01
RMM:   7    -0.646321774874E+01    0.34465E-01   -0.12292E-01  4488   0.186E+00    0.442E-01
RMM:   8    -0.646263018657E+01    0.58756E-03   -0.12686E-02  4369   0.113E+00    0.498E-02
RMM:   9    -0.646267164561E+01   -0.41459E-04   -0.60693E-04  4241   0.238E-01
   1 F= -.64626716E+01 E0= -.64626716E+01  d E =0.000000E+00
