 vasp.5.3.2 13Sep12 (build Apr 01 2013 09:06:40) complex                        
  
 executed on             LinuxIFC date 2014.02.16  11:52:27
 running on    8 total cores
 distrk:  each k-point on    8 cores,    1 groups
 distr:  one band on NCORES_PER_BAND=   4 cores,    2 groups


--------------------------------------------------------------------------------------------------------


 INCAR:
 POTCAR:  PAW_PBE Na_pv 05Jan2001                 
 POTCAR:  PAW_PBE O 08Apr2002                     
 POTCAR:  PAW_PBE S 17Jan2003                     
 POTCAR:  PAW_PBE Na_pv 05Jan2001                 
   VRHFIN =Na: p6s1                                                             
   LEXCH  = PE                                                                  
   EATOM  =   766.0439 eV,   56.3026 Ry                                         
                                                                                
   TITEL  = PAW_PBE Na_pv 05Jan2001                                             
   LULTRA =        F    use ultrasoft PP ?                                      
   IUNSCR =        1    unscreen: 0-lin 1-nonlin 2-no                           
   RPACOR =    1.800    partial core radius                                     
   POMASS =   22.990; ZVAL   =    7.000    mass and valenz                      
   RCORE  =    2.200    outmost cutoff radius                                   
   RWIGS  =    2.200; RWIGS  =    1.164    wigner-seitz radius (au A)           
   ENMAX  =  259.561; ENMIN  =  194.671 eV                                      
   ICORE  =        2    local potential                                         
   LCOR   =        T    correct aug charges                                     
   LPAW   =        T    paw PP                                                  
   EAUG   =  368.056                                                            
   DEXC   =    -.009                                                            
   RMAX   =    2.862    core radius for proj-oper                               
   RAUG   =    1.300    factor for augmentation sphere                          
   RDEP   =    2.259    radius for radial grids                                 
   QCUT   =   -4.368; QGAM   =    8.735    optimization parameters              
                                                                                
   Description                                                                  
     l     E      TYP  RCUT    TYP  RCUT                                        
     1   .000     23  2.000                                                     
     1   .500     23  2.000                                                     
     0   .000     23  2.200                                                     
     0  1.000     23  2.200                                                     
     2  -.100     23  2.000                                                     
  local pseudopotential read in
  partial core-charges read in
  atomic valenz-charges read in
  non local Contribution for L=           1  read in
    real space projection operators read in
  non local Contribution for L=           1  read in
    real space projection operators read in
  non local Contribution for L=           0  read in
    real space projection operators read in
  non local Contribution for L=           0  read in
    real space projection operators read in
    PAW grid and wavefunctions read in
 
   number of l-projection  operators is LMAX  =           4
   number of lm-projection operators is LMMAX =           8
 
 POTCAR:  PAW_PBE O 08Apr2002                     
   VRHFIN =O: s2p4                                                              
   LEXCH  = PE                                                                  
   EATOM  =   432.3788 eV,   31.7789 Ry                                         
                                                                                
   TITEL  = PAW_PBE O 08Apr2002                                                 
   LULTRA =        F    use ultrasoft PP ?                                      
   IUNSCR =        0    unscreen: 0-lin 1-nonlin 2-no                           
   RPACOR =     .000    partial core radius                                     
   POMASS =   16.000; ZVAL   =    6.000    mass and valenz                      
   RCORE  =    1.520    outmost cutoff radius                                   
   RWIGS  =    1.550; RWIGS  =     .820    wigner-seitz radius (au A)           
   ENMAX  =  400.000; ENMIN  =  300.000 eV                                      
   ICORE  =        2    local potential                                         
   LCOR   =        T    correct aug charges                                     
   LPAW   =        T    paw PP                                                  
   EAUG   =  605.392                                                            
   DEXC   =     .000                                                            
   RMAX   =    2.264    core radius for proj-oper                               
   RAUG   =    1.300    factor for augmentation sphere                          
   RDEP   =    1.550    radius for radial grids                                 
   QCUT   =   -5.520; QGAM   =   11.041    optimization parameters              
                                                                                
   Description                                                                  
     l     E      TYP  RCUT    TYP  RCUT                                        
     0   .000     23  1.200                                                     
     0  -.700     23  1.200                                                     
     1   .000     23  1.520                                                     
     1   .600     23  1.520                                                     
     2   .000      7  1.500                                                     
  local pseudopotential read in
  atomic valenz-charges read in
  non local Contribution for L=           0  read in
    real space projection operators read in
  non local Contribution for L=           0  read in
    real space projection operators read in
  non local Contribution for L=           1  read in
    real space projection operators read in
  non local Contribution for L=           1  read in
    real space projection operators read in
    PAW grid and wavefunctions read in
 
   number of l-projection  operators is LMAX  =           4
   number of lm-projection operators is LMMAX =           8
 
 POTCAR:  PAW_PBE S 17Jan2003                     
   VRHFIN =S : s2p4                                                             
   LEXCH  = PE                                                                  
   EATOM  =   276.8230 eV,   20.3459 Ry                                         
                                                                                
   TITEL  = PAW_PBE S 17Jan2003                                                 
   LULTRA =        F    use ultrasoft PP ?                                      
   IUNSCR =        1    unscreen: 0-lin 1-nonlin 2-no                           
   RPACOR =    1.500    partial core radius                                     
   POMASS =   32.066; ZVAL   =    6.000    mass and valenz                      
   RCORE  =    1.900    outmost cutoff radius                                   
   RWIGS  =    2.200; RWIGS  =    1.164    wigner-seitz radius (au A)           
   ENMAX  =  280.000; ENMIN  =  194.016 eV                                      
   ICORE  =        2    local potential                                         
   LCOR   =        T    correct aug charges                                     
   LPAW   =        T    paw PP                                                  
   EAUG   =  335.092                                                            
   DEXC   =     .000                                                            
   RMAX   =    2.867    core radius for proj-oper                               
   RAUG   =    1.300    factor for augmentation sphere                          
   RDEP   =    1.954    radius for radial grids                                 
   QCUT   =   -4.360; QGAM   =    8.721    optimization parameters              
                                                                                
   Description                                                                  
     l     E      TYP  RCUT    TYP  RCUT                                        
     0   .000     23  1.900                                                     
     0   .000     23  1.900                                                     
     1   .000     23  1.900                                                     
     1   .000     23  1.900                                                     
     2   .000     23  1.900                                                     
  local pseudopotential read in
  partial core-charges read in
  atomic valenz-charges read in
  non local Contribution for L=           0  read in
    real space projection operators read in
  non local Contribution for L=           0  read in
    real space projection operators read in
  non local Contribution for L=           1  read in
    real space projection operators read in
  non local Contribution for L=           1  read in
    real space projection operators read in
    PAW grid and wavefunctions read in
 
   number of l-projection  operators is LMAX  =           4
   number of lm-projection operators is LMMAX =           8
 
PAW_PBE Na_pv 05Jan2001                 :
 energy of atom  1       EATOM= -766.0439
 kinetic energy error for atom=    0.0019 (will be added to EATOM!!)
PAW_PBE O 08Apr2002                     :
 energy of atom  2       EATOM= -432.3788
 kinetic energy error for atom=    0.0208 (will be added to EATOM!!)
PAW_PBE S 17Jan2003                     :
 energy of atom  3       EATOM= -276.8230
 kinetic energy error for atom=    0.0016 (will be added to EATOM!!)
 
 
 POSCAR: Na S O                                  
  positions in direct lattice
  No initial velocities read in
 exchange correlation table for  LEXCH =        8
   RHO(1)=    0.500       N(1)  =     2000
   RHO(2)=  100.500       N(2)  =     4000
 


--------------------------------------------------------------------------------------------------------


 ion  position               nearest neighbor table
   1  0.000  0.500  0.000-  12 2.30   5 2.30   7 2.36   6 2.36  11 2.36  10 2.36
   2  0.312  0.812  0.250-   9 2.30  12 2.30
   3  0.000  0.500  0.500-   9 2.30   8 2.30  11 2.36  10 2.36   7 2.36   6 2.36
   4  0.688  0.188  0.750-   8 2.30   5 2.30
   5  0.746  0.246  0.075-  13 1.48   4 2.30   1 2.30
   6  0.332  0.270  0.250-  13 1.50   3 2.36   1 2.36
   7  0.770  0.832  0.250-  13 1.50   3 2.36   1 2.36
   8  0.746  0.246  0.425-  13 1.48   4 2.30   3 2.30
   9  0.254  0.754  0.575-  14 1.48   2 2.30   3 2.30
  10  0.230  0.168  0.750-  14 1.50   3 2.36   1 2.36
  11  0.668  0.730  0.750-  14 1.50   3 2.36   1 2.36
  12  0.254  0.754  0.925-  14 1.48   2 2.30   1 2.30
  13  0.650  0.150  0.250-   8 1.48   5 1.48   7 1.50   6 1.50
  14  0.350  0.850  0.750-   9 1.48  12 1.48  10 1.50  11 1.50
 
  LATTYP: Found a base centered orthorhombic cell.
 ALAT       =     5.5333180000
 B/A-ratio  =     1.5994923841
 C/A-ratio  =     1.2469100818
  
  Lattice vectors:
  
 A1 = (  -2.7666590000,  -4.4252500000,   0.0000000000)
 A2 = (  -2.7666590000,   4.4252500000,   0.0000000000)
 A3 = (   0.0000000000,   0.0000000000,  -6.8995500000)


Analysis of symmetry for initial positions (statically):
=====================================================================
 Subroutine PRICEL returns:
 Original cell was already a primitive cell.
 

 Routine SETGRP: Setting up the symmetry group for a 
 base centered orthorhombic supercell.


 Subroutine GETGRP returns: Found  8 space group operations
 (whereof  2 operations were pure point group operations)
 out of a pool of  8 trial point group operations.


The static configuration has the point symmetry S_2 .
 The point group associated with its full space group is D_2h.


Analysis of symmetry for dynamics (positions and initial velocities):
=====================================================================
 Subroutine PRICEL returns:
 Original cell was already a primitive cell.
 

 Routine SETGRP: Setting up the symmetry group for a 
 base centered orthorhombic supercell.


 Subroutine GETGRP returns: Found  8 space group operations
 (whereof  2 operations were pure point group operations)
 out of a pool of  8 trial point group operations.


The dynamic configuration has the point symmetry S_2 .
 The point group associated with its full space group is D_2h.
 
 
 KPOINTS: KPOINTS                                 

Automatic generation of k-mesh.
Space group operators:
 irot       det(A)        alpha          n_x          n_y          n_z        tau_x        tau_y        tau_z
    1     1.000000     0.000000     1.000000     0.000000     0.000000     0.000000     0.000000     0.000000
    2    -1.000000     0.000000     1.000000     0.000000     0.000000     0.000000     0.000000     0.000000
    3     1.000000   180.000000     0.000000     0.000000     1.000000     0.000000     0.000000    -0.499999
    4    -1.000000   180.000000     0.000000     0.000000     1.000000     0.000000     0.000000    -0.499999
    5     1.000000   180.000000     0.000000     1.000000     0.000000     0.500000    -0.500000    -0.500001
    6    -1.000000   180.000000     0.000000     1.000000     0.000000     0.500000    -0.500000    -0.500001
    7     1.000000   180.000000     1.000000     0.000000     0.000000     0.500000    -0.500000     0.000000
    8    -1.000000   180.000000     1.000000     0.000000     0.000000     0.500000    -0.500000     0.000000
 
 Subroutine IBZKPT returns following result:
 ===========================================
 
 Found    100 irreducible k-points:
 
 Following reciprocal coordinates:
            Coordinates               Weight
  0.000000  0.000000  0.000000      1.000000
  0.111111  0.000000  0.000000      4.000000
  0.222222  0.000000  0.000000      4.000000
  0.333333  0.000000  0.000000      4.000000
  0.444444  0.000000  0.000000      4.000000
  0.111111  0.111111  0.000000      2.000000
  0.222222  0.111111  0.000000      4.000000
  0.333333  0.111111  0.000000      4.000000
  0.444444  0.111111  0.000000      4.000000
 -0.444444  0.111111  0.000000      4.000000
 -0.333333  0.111111  0.000000      4.000000
 -0.222222  0.111111  0.000000      4.000000
 -0.111111  0.111111  0.000000      2.000000
  0.222222  0.222222  0.000000      2.000000
  0.333333  0.222222  0.000000      4.000000
  0.444444  0.222222  0.000000      4.000000
 -0.444444  0.222222  0.000000      4.000000
 -0.333333  0.222222  0.000000      4.000000
 -0.222222  0.222222  0.000000      2.000000
  0.333333  0.333333  0.000000      2.000000
  0.444444  0.333333  0.000000      4.000000
 -0.444444  0.333333  0.000000      4.000000
 -0.333333  0.333333  0.000000      2.000000
  0.444444  0.444444  0.000000      2.000000
 -0.444444  0.444444  0.000000      2.000000
  0.000000  0.000000  0.166667      2.000000
  0.111111  0.000000  0.166667      8.000000
  0.222222  0.000000  0.166667      8.000000
  0.333333  0.000000  0.166667      8.000000
  0.444444  0.000000  0.166667      8.000000
  0.111111  0.111111  0.166667      4.000000
  0.222222  0.111111  0.166667      8.000000
  0.333333  0.111111  0.166667      8.000000
  0.444444  0.111111  0.166667      8.000000
 -0.444444  0.111111  0.166667      8.000000
 -0.333333  0.111111  0.166667      8.000000
 -0.222222  0.111111  0.166667      8.000000
 -0.111111  0.111111  0.166667      4.000000
  0.222222  0.222222  0.166667      4.000000
  0.333333  0.222222  0.166667      8.000000
  0.444444  0.222222  0.166667      8.000000
 -0.444444  0.222222  0.166667      8.000000
 -0.333333  0.222222  0.166667      8.000000
 -0.222222  0.222222  0.166667      4.000000
  0.333333  0.333333  0.166667      4.000000
  0.444444  0.333333  0.166667      8.000000
 -0.444444  0.333333  0.166667      8.000000
 -0.333333  0.333333  0.166667      4.000000
  0.444444  0.444444  0.166667      4.000000
 -0.444444  0.444444  0.166667      4.000000
  0.000000  0.000000  0.333333      2.000000
  0.111111  0.000000  0.333333      8.000000
  0.222222  0.000000  0.333333      8.000000
  0.333333  0.000000  0.333333      8.000000
  0.444444  0.000000  0.333333      8.000000
  0.111111  0.111111  0.333333      4.000000
  0.222222  0.111111  0.333333      8.000000
  0.333333  0.111111  0.333333      8.000000
  0.444444  0.111111  0.333333      8.000000
 -0.444444  0.111111  0.333333      8.000000
 -0.333333  0.111111  0.333333      8.000000
 -0.222222  0.111111  0.333333      8.000000
 -0.111111  0.111111  0.333333      4.000000
  0.222222  0.222222  0.333333      4.000000
  0.333333  0.222222  0.333333      8.000000
  0.444444  0.222222  0.333333      8.000000
 -0.444444  0.222222  0.333333      8.000000
 -0.333333  0.222222  0.333333      8.000000
 -0.222222  0.222222  0.333333      4.000000
  0.333333  0.333333  0.333333      4.000000
  0.444444  0.333333  0.333333      8.000000
 -0.444444  0.333333  0.333333      8.000000
 -0.333333  0.333333  0.333333      4.000000
  0.444444  0.444444  0.333333      4.000000
 -0.444444  0.444444  0.333333      4.000000
  0.000000  0.000000  0.500000      1.000000
  0.111111  0.000000  0.500000      4.000000
  0.222222  0.000000  0.500000      4.000000
  0.333333  0.000000  0.500000      4.000000
  0.444444  0.000000  0.500000      4.000000
  0.111111  0.111111  0.500000      2.000000
  0.222222  0.111111  0.500000      4.000000
  0.333333  0.111111  0.500000      4.000000
  0.444444  0.111111  0.500000      4.000000
 -0.444444  0.111111  0.500000      4.000000
 -0.333333  0.111111  0.500000      4.000000
 -0.222222  0.111111  0.500000      4.000000
 -0.111111  0.111111  0.500000      2.000000
  0.222222  0.222222  0.500000      2.000000
  0.333333  0.222222  0.500000      4.000000
  0.444444  0.222222  0.500000      4.000000
 -0.444444  0.222222  0.500000      4.000000
 -0.333333  0.222222  0.500000      4.000000
 -0.222222  0.222222  0.500000      2.000000
  0.333333  0.333333  0.500000      2.000000
  0.444444  0.333333  0.500000      4.000000
 -0.444444  0.333333  0.500000      4.000000
 -0.333333  0.333333  0.500000      2.000000
  0.444444  0.444444  0.500000      2.000000
 -0.444444  0.444444  0.500000      2.000000
 
 Following cartesian coordinates:
            Coordinates               Weight
  0.000000  0.000000  0.000000      1.000000
 -0.020080 -0.012554  0.000000      4.000000
 -0.040161 -0.025108  0.000000      4.000000
 -0.060241 -0.037663  0.000000      4.000000
 -0.080322 -0.050217  0.000000      4.000000
  0.000000 -0.025108  0.000000      2.000000
 -0.020080 -0.037663  0.000000      4.000000
 -0.040161 -0.050217  0.000000      4.000000
 -0.060241 -0.062771  0.000000      4.000000
  0.100402  0.037663  0.000000      4.000000
  0.080322  0.025108  0.000000      4.000000
  0.060241  0.012554  0.000000      4.000000
  0.040161  0.000000  0.000000      2.000000
  0.000000 -0.050217  0.000000      2.000000
 -0.020080 -0.062771  0.000000      4.000000
 -0.040161 -0.075325  0.000000      4.000000
  0.120482  0.025108  0.000000      4.000000
  0.100402  0.012554  0.000000      4.000000
  0.080322  0.000000  0.000000      2.000000
  0.000000 -0.075325  0.000000      2.000000
 -0.020080 -0.087880  0.000000      4.000000
  0.140563  0.012554  0.000000      4.000000
  0.120482  0.000000  0.000000      2.000000
  0.000000 -0.100434  0.000000      2.000000
  0.160643  0.000000  0.000000      2.000000
  0.000000  0.000000  0.024156      2.000000
 -0.020080 -0.012554  0.024156      8.000000
 -0.040161 -0.025108  0.024156      8.000000
 -0.060241 -0.037663  0.024156      8.000000
 -0.080322 -0.050217  0.024156      8.000000
  0.000000 -0.025108  0.024156      4.000000
 -0.020080 -0.037663  0.024156      8.000000
 -0.040161 -0.050217  0.024156      8.000000
 -0.060241 -0.062771  0.024156      8.000000
  0.100402  0.037663  0.024156      8.000000
  0.080322  0.025108  0.024156      8.000000
  0.060241  0.012554  0.024156      8.000000
  0.040161  0.000000  0.024156      4.000000
  0.000000 -0.050217  0.024156      4.000000
 -0.020080 -0.062771  0.024156      8.000000
 -0.040161 -0.075325  0.024156      8.000000
  0.120482  0.025108  0.024156      8.000000
  0.100402  0.012554  0.024156      8.000000
  0.080322  0.000000  0.024156      4.000000
  0.000000 -0.075325  0.024156      4.000000
 -0.020080 -0.087880  0.024156      8.000000
  0.140563  0.012554  0.024156      8.000000
  0.120482  0.000000  0.024156      4.000000
  0.000000 -0.100434  0.024156      4.000000
  0.160643  0.000000  0.024156      4.000000
  0.000000  0.000000  0.048312      2.000000
 -0.020080 -0.012554  0.048312      8.000000
 -0.040161 -0.025108  0.048312      8.000000
 -0.060241 -0.037663  0.048312      8.000000
 -0.080322 -0.050217  0.048312      8.000000
  0.000000 -0.025108  0.048312      4.000000
 -0.020080 -0.037663  0.048312      8.000000
 -0.040161 -0.050217  0.048312      8.000000
 -0.060241 -0.062771  0.048312      8.000000
  0.100402  0.037663  0.048312      8.000000
  0.080322  0.025108  0.048312      8.000000
  0.060241  0.012554  0.048312      8.000000
  0.040161  0.000000  0.048312      4.000000
  0.000000 -0.050217  0.048312      4.000000
 -0.020080 -0.062771  0.048312      8.000000
 -0.040161 -0.075325  0.048312      8.000000
  0.120482  0.025108  0.048312      8.000000
  0.100402  0.012554  0.048312      8.000000
  0.080322  0.000000  0.048312      4.000000
  0.000000 -0.075325  0.048312      4.000000
 -0.020080 -0.087880  0.048312      8.000000
  0.140563  0.012554  0.048312      8.000000
  0.120482  0.000000  0.048312      4.000000
  0.000000 -0.100434  0.048312      4.000000
  0.160643  0.000000  0.048312      4.000000
  0.000000  0.000000  0.072468      1.000000
 -0.020080 -0.012554  0.072468      4.000000
 -0.040161 -0.025108  0.072468      4.000000
 -0.060241 -0.037663  0.072468      4.000000
 -0.080322 -0.050217  0.072468      4.000000
  0.000000 -0.025108  0.072468      2.000000
 -0.020080 -0.037663  0.072468      4.000000
 -0.040161 -0.050217  0.072468      4.000000
 -0.060241 -0.062771  0.072468      4.000000
  0.100402  0.037663  0.072468      4.000000
  0.080322  0.025108  0.072468      4.000000
  0.060241  0.012554  0.072468      4.000000
  0.040161  0.000000  0.072468      2.000000
  0.000000 -0.050217  0.072468      2.000000
 -0.020080 -0.062771  0.072468      4.000000
 -0.040161 -0.075325  0.072468      4.000000
  0.120482  0.025108  0.072468      4.000000
  0.100402  0.012554  0.072468      4.000000
  0.080322  0.000000  0.072468      2.000000
  0.000000 -0.075325  0.072468      2.000000
 -0.020080 -0.087880  0.072468      4.000000
  0.140563  0.012554  0.072468      4.000000
  0.120482  0.000000  0.072468      2.000000
  0.000000 -0.100434  0.072468      2.000000
  0.160643  0.000000  0.072468      2.000000
 
 TETIRR: Found    729 inequivalent tetrahedra from     2916


--------------------------------------------------------------------------------------------------------




 Dimension of arrays:
   k-points           NKPTS =    100   k-points in BZ     NKDIM =    100   number of bands    NBANDS=     52
   number of dos      NEDOS =    301   number of ions     NIONS =     14
   non local maximal  LDIM  =      4   non local SUM 2l+1 LMDIM =      8
   total plane-waves  NPLWV =  36000
   max r-space proj   IRMAX =      1   max aug-charges    IRDMAX=   2502
   dimension x,y,z NGX =    30 NGY =   30 NGZ =   40
   dimension x,y,z NGXF=    42 NGYF=   42 NGZF=   56
   support grid    NGXF=    42 NGYF=   42 NGZF=   56
   ions per type =               4   8   2
 NGX,Y,Z   is equivalent  to a cutoff of   9.56,  9.56,  9.64 a.u.
 NGXF,Y,Z  is equivalent  to a cutoff of  13.38, 13.38, 13.49 a.u.


 I would recommend the setting:
   dimension x,y,z NGX =    29 NGY =   29 NGZ =   38
 SYSTEM =  unknown system                          
 POSCAR =  Na S O                                  

 Startparameter for this run:
   NWRITE =      2    write-flag & timer
   PREC   = med       normal or accurate (medium, high low for compatibility)
   ISTART =      0    job   : 0-new  1-cont  2-samecut
   ICHARG =      1    charge: 1-file 2-atom 10-const
   ISPIN  =      1    spin polarized calculation?
   LNONCOLLINEAR =      F non collinear calculations
   LSORBIT =      F    spin-orbit coupling
   INIWAV =      1    electr: 0-lowe 1-rand  2-diag
   LASPH  =      F    aspherical Exc in radial PAW
   METAGGA=      F    non-selfconsistent MetaGGA calc.

 Electronic Relaxation 1
   ENCUT  =  520.0 eV  38.22 Ry    6.18 a.u.   9.70  9.70 12.83*2*pi/ulx,y,z
   ENINI  =  520.0     initial cutoff
   ENAUG  =  605.4 eV  augmentation charge cutoff
   NELM   =     60;   NELMIN=  5; NELMDL=  0     # of ELM steps 
   EDIFF  = 0.1E-03   stopping-criterion for ELM
   LREAL  =      F    real-space projection
   NLSPLINE    = F    spline interpolate recip. space projectors
   LCOMPAT=      F    compatible to vasp.4.4
   GGA_COMPAT  = T    GGA compatible to vasp.4.4-vasp.4.6
   LMAXPAW     = -100 max onsite density
   LMAXMIX     =    2 max onsite mixed and CHGCAR
   VOSKOWN=      0    Vosko Wilk Nusair interpolation
   ROPT   =    0.00000   0.00000   0.00000
 Ionic relaxation
   EDIFFG = 0.1E-02   stopping-criterion for IOM
   NSW    =      0    number of steps for IOM
   NBLOCK =      1;   KBLOCK =      1    inner block; outer block 
   IBRION =     -1    ionic relax: 0-MD 1-quasi-New 2-CG
   NFREE  =      0    steps in history (QN), initial steepest desc. (CG)
   ISIF   =      2    stress and relaxation
   IWAVPR =     10    prediction:  0-non 1-charg 2-wave 3-comb
   ISYM   =      2    0-nonsym 1-usesym 2-fastsym
   LCORR  =      T    Harris-Foulkes like correction to forces

   POTIM  = 0.5000    time-step for ionic-motion
   TEIN   =    0.0    initial temperature
   TEBEG  =    0.0;   TEEND  =   0.0 temperature during run
   SMASS  =  -3.00    Nose mass-parameter (am)
   estimated Nose-frequenzy (Omega)   =  0.10E-29 period in steps =****** mass=  -0.622E-27a.u.
   SCALEE = 1.0000    scale energy and forces
   NPACO  =    256;   APACO  = 16.0  distance and # of slots for P.C.
   PSTRESS=    0.0 pullay stress

  Mass of Ions in am
   POMASS =  22.99 16.00 32.07
  Ionic Valenz
   ZVAL   =   7.00  6.00  6.00
  Atomic Wigner-Seitz radii
   RWIGS  =  -1.00 -1.00 -1.00
  virtual crystal weights 
   VCA    =   1.00  1.00  1.00
   NELECT =      88.0000    total number of electrons
   NUPDOWN=      -1.0000    fix difference up-down

 DOS related values:
   EMIN   =  10.00;   EMAX   =-10.00  energy-range for DOS
   EFERMI =   0.00
   ISMEAR =    -5;   SIGMA  =   0.20  broadening in eV -4-tet -1-fermi 0-gaus

 Electronic relaxation 2 (details)
   IALGO  =     68    algorithm
   LDIAG  =      T    sub-space diagonalisation (order eigenvalues)
   LSUBROT=      T    optimize rotation matrix (better conditioning)
   TURBO    =      0    0=normal 1=particle mesh
   IRESTART =      0    0=no restart 2=restart with 2 vectors
   NREBOOT  =      0    no. of reboots
   NMIN     =      0    reboot dimension
   EREF     =   0.00    reference energy to select bands
   IMIX   =      4    mixing-type and parameters
     AMIX     =   0.40;   BMIX     =  1.00
     AMIX_MAG =   1.60;   BMIX_MAG =  1.00
     AMIN     =   0.10
     WC   =   100.;   INIMIX=   1;  MIXPRE=   1;  MAXMIX= -45

 Intra band minimization:
   WEIMIN = 0.0000     energy-eigenvalue tresh-hold
   EBREAK =  0.48E-06  absolut break condition
   DEPER  =   0.30     relativ break condition  

   TIME   =   0.40     timestep for ELM

  volume/ion in A,a.u.               =      12.07        81.44
  Fermi-wavevector in a.u.,A,eV,Ry     =   1.317208  2.489162 23.606606  1.735037
  Thomas-Fermi vector in A             =   2.447265
 
 Write flags
   LWAVE  =      F    write WAVECAR
   LCHARG =      T    write CHGCAR
   LVTOT  =      T    write LOCPOT, total local potential
   LVHAR  =      F    write LOCPOT, Hartree potential only
   LELF   =      T    write electronic localiz. function (ELF)
   LORBIT =     11    0 simple, 1 ext, 2 COOP (PROOUT)


 Dipole corrections
   LMONO  =      F    monopole corrections only (constant potential shift)
   LDIPOL =      F    correct potential (dipole corrections)
   IDIPOL =      0    1-x, 2-y, 3-z, 4-all directions 
   EPSILON=  1.0000000 bulk dielectric constant

 Exchange correlation treatment:
   GGA     =    --    GGA type
   LEXCH   =     8    internal setting for exchange type
   VOSKOWN=      0    Vosko Wilk Nusair interpolation
   LHFCALC =     F    Hartree Fock is set to
   LHFONE  =     F    Hartree Fock one center treatment
   AEXX    =    0.0000 exact exchange contribution

 Linear response parameters
   LEPSILON=     F    determine dielectric tensor
   LRPA    =     F    only Hartree local field effects (RPA)
   LNABLA  =     F    use nabla operator in PAW spheres
   LVEL    =     F    velocity operator in full k-point grid
   LINTERFAST=   F  fast interpolation
   KINTER  =     0    interpolate to denser k-point grid
   CSHIFT  =0.1000    complex shift for real part using Kramers Kronig
   OMEGAMAX=  -1.0    maximum frequency
   DEG_THRESHOLD= 0.2000000E-02 threshold for treating states as degnerate
   RTIME   =    0.100 relaxation time in fs

 Orbital magnetization related:
   ORBITALMAG=     F  switch on orbital magnetization
   LCHIMAG   =     F  perturbation theory with respect to B field
   DQ        =  0.001000  dq finite difference perturbation B field



--------------------------------------------------------------------------------------------------------


 Static calculation
 charge density and potential will be updated during run
 non-spin polarized calculation
 RMM-DIIS sequential band-by-band and
  variant of blocked Davidson during initial phase
 perform sub-space diagonalisation
    before iterative eigenvector-optimisation
 modified Broyden-mixing scheme, WC =      100.0
 initial mixing is a Kerker type mixing with AMIX =  0.4000 and BMIX =      1.0000
 Hartree-type preconditioning will be used
 using additional bands            8
 reciprocal scheme for non local part
 use partial core corrections
 calculate Harris-corrections to forces 
   (improved forces if not selfconsistent)
 use gradient corrections 
 use of overlap-Matrix (Vanderbilt PP)
 Fermi weights with tetrahedron method with Bloechl corrections


--------------------------------------------------------------------------------------------------------


  energy-cutoff  :      520.00
  volume of cell :      168.94
      direct lattice vectors                 reciprocal lattice vectors
    -2.766659000 -4.425250000  0.000000000    -0.180723392 -0.112987967  0.000000000
     2.766659000 -4.425250000  0.000000000     0.180723392 -0.112987967  0.000000000
     0.000000000  0.000000000  6.899550000     0.000000000  0.000000000  0.144936989

  length of vectors
     5.218930885  5.218930885  6.899550000     0.213136635  0.213136635  0.144936989


 
 k-points in units of 2pi/SCALE and weight: KPOINTS                                 
   0.00000000  0.00000000  0.00000000       0.002
  -0.02008038 -0.01255422  0.00000000       0.008
  -0.04016075 -0.02510844  0.00000000       0.008
  -0.06024113 -0.03766266  0.00000000       0.008
  -0.08032151 -0.05021687  0.00000000       0.008
   0.00000000 -0.02510844  0.00000000       0.004
  -0.02008038 -0.03766266  0.00000000       0.008
  -0.04016075 -0.05021687  0.00000000       0.008
  -0.06024113 -0.06277109  0.00000000       0.008
   0.10040188  0.03766266  0.00000000       0.008
   0.08032151  0.02510844  0.00000000       0.008
   0.06024113  0.01255422  0.00000000       0.008
   0.04016075  0.00000000  0.00000000       0.004
   0.00000000 -0.05021687  0.00000000       0.004
  -0.02008038 -0.06277109  0.00000000       0.008
  -0.04016075 -0.07532531  0.00000000       0.008
   0.12048226  0.02510844  0.00000000       0.008
   0.10040188  0.01255422  0.00000000       0.008
   0.08032151  0.00000000  0.00000000       0.004
   0.00000000 -0.07532531  0.00000000       0.004
  -0.02008038 -0.08787953  0.00000000       0.008
   0.14056264  0.01255422  0.00000000       0.008
   0.12048226  0.00000000  0.00000000       0.004
   0.00000000 -0.10043375  0.00000000       0.004
   0.16064302  0.00000000  0.00000000       0.004
   0.00000000  0.00000000  0.02415616       0.004
  -0.02008038 -0.01255422  0.02415616       0.016
  -0.04016075 -0.02510844  0.02415616       0.016
  -0.06024113 -0.03766266  0.02415616       0.016
  -0.08032151 -0.05021687  0.02415616       0.016
   0.00000000 -0.02510844  0.02415616       0.008
  -0.02008038 -0.03766266  0.02415616       0.016
  -0.04016075 -0.05021687  0.02415616       0.016
  -0.06024113 -0.06277109  0.02415616       0.016
   0.10040188  0.03766266  0.02415616       0.016
   0.08032151  0.02510844  0.02415616       0.016
   0.06024113  0.01255422  0.02415616       0.016
   0.04016075  0.00000000  0.02415616       0.008
   0.00000000 -0.05021687  0.02415616       0.008
  -0.02008038 -0.06277109  0.02415616       0.016
  -0.04016075 -0.07532531  0.02415616       0.016
   0.12048226  0.02510844  0.02415616       0.016
   0.10040188  0.01255422  0.02415616       0.016
   0.08032151  0.00000000  0.02415616       0.008
   0.00000000 -0.07532531  0.02415616       0.008
  -0.02008038 -0.08787953  0.02415616       0.016
   0.14056264  0.01255422  0.02415616       0.016
   0.12048226  0.00000000  0.02415616       0.008
   0.00000000 -0.10043375  0.02415616       0.008
   0.16064302  0.00000000  0.02415616       0.008
   0.00000000  0.00000000  0.04831233       0.004
  -0.02008038 -0.01255422  0.04831233       0.016
  -0.04016075 -0.02510844  0.04831233       0.016
  -0.06024113 -0.03766266  0.04831233       0.016
  -0.08032151 -0.05021687  0.04831233       0.016
   0.00000000 -0.02510844  0.04831233       0.008
  -0.02008038 -0.03766266  0.04831233       0.016
  -0.04016075 -0.05021687  0.04831233       0.016
  -0.06024113 -0.06277109  0.04831233       0.016
   0.10040188  0.03766266  0.04831233       0.016
   0.08032151  0.02510844  0.04831233       0.016
   0.06024113  0.01255422  0.04831233       0.016
   0.04016075  0.00000000  0.04831233       0.008
   0.00000000 -0.05021687  0.04831233       0.008
  -0.02008038 -0.06277109  0.04831233       0.016
  -0.04016075 -0.07532531  0.04831233       0.016
   0.12048226  0.02510844  0.04831233       0.016
   0.10040188  0.01255422  0.04831233       0.016
   0.08032151  0.00000000  0.04831233       0.008
   0.00000000 -0.07532531  0.04831233       0.008
  -0.02008038 -0.08787953  0.04831233       0.016
   0.14056264  0.01255422  0.04831233       0.016
   0.12048226  0.00000000  0.04831233       0.008
   0.00000000 -0.10043375  0.04831233       0.008
   0.16064302  0.00000000  0.04831233       0.008
   0.00000000  0.00000000  0.07246849       0.002
  -0.02008038 -0.01255422  0.07246849       0.008
  -0.04016075 -0.02510844  0.07246849       0.008
  -0.06024113 -0.03766266  0.07246849       0.008
  -0.08032151 -0.05021687  0.07246849       0.008
   0.00000000 -0.02510844  0.07246849       0.004
  -0.02008038 -0.03766266  0.07246849       0.008
  -0.04016075 -0.05021687  0.07246849       0.008
  -0.06024113 -0.06277109  0.07246849       0.008
   0.10040188  0.03766266  0.07246849       0.008
   0.08032151  0.02510844  0.07246849       0.008
   0.06024113  0.01255422  0.07246849       0.008
   0.04016075  0.00000000  0.07246849       0.004
   0.00000000 -0.05021687  0.07246849       0.004
  -0.02008038 -0.06277109  0.07246849       0.008
  -0.04016075 -0.07532531  0.07246849       0.008
   0.12048226  0.02510844  0.07246849       0.008
   0.10040188  0.01255422  0.07246849       0.008
   0.08032151  0.00000000  0.07246849       0.004
   0.00000000 -0.07532531  0.07246849       0.004
  -0.02008038 -0.08787953  0.07246849       0.008
   0.14056264  0.01255422  0.07246849       0.008
   0.12048226  0.00000000  0.07246849       0.004
   0.00000000 -0.10043375  0.07246849       0.004
   0.16064302  0.00000000  0.07246849       0.004
 
 k-points in reciprocal lattice and weights: KPOINTS                                 
   0.00000000  0.00000000  0.00000000       0.002
   0.11111111  0.00000000  0.00000000       0.008
   0.22222222  0.00000000  0.00000000       0.008
   0.33333333  0.00000000  0.00000000       0.008
   0.44444444  0.00000000  0.00000000       0.008
   0.11111111  0.11111111  0.00000000       0.004
   0.22222222  0.11111111  0.00000000       0.008
   0.33333333  0.11111111  0.00000000       0.008
   0.44444444  0.11111111  0.00000000       0.008
  -0.44444444  0.11111111  0.00000000       0.008
  -0.33333333  0.11111111  0.00000000       0.008
  -0.22222222  0.11111111  0.00000000       0.008
  -0.11111111  0.11111111  0.00000000       0.004
   0.22222222  0.22222222  0.00000000       0.004
   0.33333333  0.22222222  0.00000000       0.008
   0.44444444  0.22222222  0.00000000       0.008
  -0.44444444  0.22222222  0.00000000       0.008
  -0.33333333  0.22222222  0.00000000       0.008
  -0.22222222  0.22222222  0.00000000       0.004
   0.33333333  0.33333333  0.00000000       0.004
   0.44444444  0.33333333  0.00000000       0.008
  -0.44444444  0.33333333  0.00000000       0.008
  -0.33333333  0.33333333  0.00000000       0.004
   0.44444444  0.44444444  0.00000000       0.004
  -0.44444444  0.44444444  0.00000000       0.004
   0.00000000  0.00000000  0.16666667       0.004
   0.11111111  0.00000000  0.16666667       0.016
   0.22222222  0.00000000  0.16666667       0.016
   0.33333333  0.00000000  0.16666667       0.016
   0.44444444  0.00000000  0.16666667       0.016
   0.11111111  0.11111111  0.16666667       0.008
   0.22222222  0.11111111  0.16666667       0.016
   0.33333333  0.11111111  0.16666667       0.016
   0.44444444  0.11111111  0.16666667       0.016
  -0.44444444  0.11111111  0.16666667       0.016
  -0.33333333  0.11111111  0.16666667       0.016
  -0.22222222  0.11111111  0.16666667       0.016
  -0.11111111  0.11111111  0.16666667       0.008
   0.22222222  0.22222222  0.16666667       0.008
   0.33333333  0.22222222  0.16666667       0.016
   0.44444444  0.22222222  0.16666667       0.016
  -0.44444444  0.22222222  0.16666667       0.016
  -0.33333333  0.22222222  0.16666667       0.016
  -0.22222222  0.22222222  0.16666667       0.008
   0.33333333  0.33333333  0.16666667       0.008
   0.44444444  0.33333333  0.16666667       0.016
  -0.44444444  0.33333333  0.16666667       0.016
  -0.33333333  0.33333333  0.16666667       0.008
   0.44444444  0.44444444  0.16666667       0.008
  -0.44444444  0.44444444  0.16666667       0.008
   0.00000000  0.00000000  0.33333333       0.004
   0.11111111  0.00000000  0.33333333       0.016
   0.22222222  0.00000000  0.33333333       0.016
   0.33333333  0.00000000  0.33333333       0.016
   0.44444444  0.00000000  0.33333333       0.016
   0.11111111  0.11111111  0.33333333       0.008
   0.22222222  0.11111111  0.33333333       0.016
   0.33333333  0.11111111  0.33333333       0.016
   0.44444444  0.11111111  0.33333333       0.016
  -0.44444444  0.11111111  0.33333333       0.016
  -0.33333333  0.11111111  0.33333333       0.016
  -0.22222222  0.11111111  0.33333333       0.016
  -0.11111111  0.11111111  0.33333333       0.008
   0.22222222  0.22222222  0.33333333       0.008
   0.33333333  0.22222222  0.33333333       0.016
   0.44444444  0.22222222  0.33333333       0.016
  -0.44444444  0.22222222  0.33333333       0.016
  -0.33333333  0.22222222  0.33333333       0.016
  -0.22222222  0.22222222  0.33333333       0.008
   0.33333333  0.33333333  0.33333333       0.008
   0.44444444  0.33333333  0.33333333       0.016
  -0.44444444  0.33333333  0.33333333       0.016
  -0.33333333  0.33333333  0.33333333       0.008
   0.44444444  0.44444444  0.33333333       0.008
  -0.44444444  0.44444444  0.33333333       0.008
   0.00000000  0.00000000  0.50000000       0.002
   0.11111111  0.00000000  0.50000000       0.008
   0.22222222  0.00000000  0.50000000       0.008
   0.33333333  0.00000000  0.50000000       0.008
   0.44444444  0.00000000  0.50000000       0.008
   0.11111111  0.11111111  0.50000000       0.004
   0.22222222  0.11111111  0.50000000       0.008
   0.33333333  0.11111111  0.50000000       0.008
   0.44444444  0.11111111  0.50000000       0.008
  -0.44444444  0.11111111  0.50000000       0.008
  -0.33333333  0.11111111  0.50000000       0.008
  -0.22222222  0.11111111  0.50000000       0.008
  -0.11111111  0.11111111  0.50000000       0.004
   0.22222222  0.22222222  0.50000000       0.004
   0.33333333  0.22222222  0.50000000       0.008
   0.44444444  0.22222222  0.50000000       0.008
  -0.44444444  0.22222222  0.50000000       0.008
  -0.33333333  0.22222222  0.50000000       0.008
  -0.22222222  0.22222222  0.50000000       0.004
   0.33333333  0.33333333  0.50000000       0.004
   0.44444444  0.33333333  0.50000000       0.008
  -0.44444444  0.33333333  0.50000000       0.008
  -0.33333333  0.33333333  0.50000000       0.004
   0.44444444  0.44444444  0.50000000       0.004
  -0.44444444  0.44444444  0.50000000       0.004
 
 position of ions in fractional coordinates (direct lattice) 
   0.00000045  0.50000065  0.00000000
   0.31175005  0.81175026  0.25000035
   0.00000045  0.50000065  0.50000070
   0.68824990  0.18824969  0.74999960
   0.74643983  0.24643962  0.07511359
   0.33179929  0.27038587  0.25000035
   0.77038584  0.83179927  0.25000035
   0.74643983  0.24643962  0.42488711
   0.25356012  0.75356033  0.57511284
   0.22961411  0.16820068  0.74999960
   0.66820066  0.72961408  0.74999960
   0.25356012  0.75356033  0.92488635
   0.64990291  0.14990271  0.25000035
   0.35009704  0.85009724  0.74999960
 
 position of ions in cartesian coordinates  (Angst):
   1.38333006 -2.21262989  0.00000000
   1.38333006 -4.97176975  1.72488990
   1.38333006 -2.21262989  3.44977981
  -1.38333006 -3.87872981  5.17465971
  -1.38333006 -4.39373978  0.51824997
  -0.16991001 -2.66481987  1.72488990
   0.16991001 -7.09006964  1.72488990
  -1.38333006 -4.39373978  2.93152984
   1.38333006 -4.45675978  3.96801978
  -0.16991001 -1.76042991  5.17465971
   0.16991001 -6.18567969  5.17465971
   1.38333006 -4.45675978  6.38129964
  -1.38333006 -3.53933982  1.72488990
   1.38333006 -5.31115973  5.17465971
 


--------------------------------------------------------------------------------------------------------


 k-point  1 :   0.0000 0.0000 0.0000  plane waves:    4539
 k-point  2 :   0.1111 0.0000 0.0000  plane waves:    4550
 k-point  3 :   0.2222 0.0000 0.0000  plane waves:    4549
 k-point  4 :   0.3333 0.0000 0.0000  plane waves:    4533
 k-point  5 :   0.4444 0.0000 0.0000  plane waves:    4541
 k-point  6 :   0.1111 0.1111 0.0000  plane waves:    4561
 k-point  7 :   0.2222 0.1111 0.0000  plane waves:    4562
 k-point  8 :   0.3333 0.1111 0.0000  plane waves:    4547
 k-point  9 :   0.4444 0.1111 0.0000  plane waves:    4543
 k-point 10 :  -0.4444 0.1111 0.0000  plane waves:    4538
 k-point 11 :  -0.3333 0.1111 0.0000  plane waves:    4544
 k-point 12 :  -0.2222 0.1111 0.0000  plane waves:    4530
 k-point 13 :  -0.1111 0.1111 0.0000  plane waves:    4551
 k-point 14 :   0.2222 0.2222 0.0000  plane waves:    4557
 k-point 15 :   0.3333 0.2222 0.0000  plane waves:    4540
 k-point 16 :   0.4444 0.2222 0.0000  plane waves:    4546
 k-point 17 :  -0.4444 0.2222 0.0000  plane waves:    4551
 k-point 18 :  -0.3333 0.2222 0.0000  plane waves:    4544
 k-point 19 :  -0.2222 0.2222 0.0000  plane waves:    4540
 k-point 20 :   0.3333 0.3333 0.0000  plane waves:    4546
 k-point 21 :   0.4444 0.3333 0.0000  plane waves:    4550
 k-point 22 :  -0.4444 0.3333 0.0000  plane waves:    4546
 k-point 23 :  -0.3333 0.3333 0.0000  plane waves:    4538
 k-point 24 :   0.4444 0.4444 0.0000  plane waves:    4566
 k-point 25 :  -0.4444 0.4444 0.0000  plane waves:    4560
 k-point 26 :   0.0000 0.0000 0.1667  plane waves:    4555
 k-point 27 :   0.1111 0.0000 0.1667  plane waves:    4562
 k-point 28 :   0.2222 0.0000 0.1667  plane waves:    4536
 k-point 29 :   0.3333 0.0000 0.1667  plane waves:    4538
 k-point 30 :   0.4444 0.0000 0.1667  plane waves:    4543
 k-point 31 :   0.1111 0.1111 0.1667  plane waves:    4552
 k-point 32 :   0.2222 0.1111 0.1667  plane waves:    4544
 k-point 33 :   0.3333 0.1111 0.1667  plane waves:    4549
 k-point 34 :   0.4444 0.1111 0.1667  plane waves:    4545
 k-point 35 :  -0.4444 0.1111 0.1667  plane waves:    4553
 k-point 36 :  -0.3333 0.1111 0.1667  plane waves:    4541
 k-point 37 :  -0.2222 0.1111 0.1667  plane waves:    4534
 k-point 38 :  -0.1111 0.1111 0.1667  plane waves:    4535
 k-point 39 :   0.2222 0.2222 0.1667  plane waves:    4542
 k-point 40 :   0.3333 0.2222 0.1667  plane waves:    4550
 k-point 41 :   0.4444 0.2222 0.1667  plane waves:    4551
 k-point 42 :  -0.4444 0.2222 0.1667  plane waves:    4556
 k-point 43 :  -0.3333 0.2222 0.1667  plane waves:    4546
 k-point 44 :  -0.2222 0.2222 0.1667  plane waves:    4542
 k-point 45 :   0.3333 0.3333 0.1667  plane waves:    4554
 k-point 46 :   0.4444 0.3333 0.1667  plane waves:    4557
 k-point 47 :  -0.4444 0.3333 0.1667  plane waves:    4553
 k-point 48 :  -0.3333 0.3333 0.1667  plane waves:    4550
 k-point 49 :   0.4444 0.4444 0.1667  plane waves:    4554
 k-point 50 :  -0.4444 0.4444 0.1667  plane waves:    4558
 k-point 51 :   0.0000 0.0000 0.3333  plane waves:    4568
 k-point 52 :   0.1111 0.0000 0.3333  plane waves:    4562
 k-point 53 :   0.2222 0.0000 0.3333  plane waves:    4547
 k-point 54 :   0.3333 0.0000 0.3333  plane waves:    4550
 k-point 55 :   0.4444 0.0000 0.3333  plane waves:    4549
 k-point 56 :   0.1111 0.1111 0.3333  plane waves:    4555
 k-point 57 :   0.2222 0.1111 0.3333  plane waves:    4557
 k-point 58 :   0.3333 0.1111 0.3333  plane waves:    4551
 k-point 59 :   0.4444 0.1111 0.3333  plane waves:    4548
 k-point 60 :  -0.4444 0.1111 0.3333  plane waves:    4556
 k-point 61 :  -0.3333 0.1111 0.3333  plane waves:    4557
 k-point 62 :  -0.2222 0.1111 0.3333  plane waves:    4550
 k-point 63 :  -0.1111 0.1111 0.3333  plane waves:    4551
 k-point 64 :   0.2222 0.2222 0.3333  plane waves:    4546
 k-point 65 :   0.3333 0.2222 0.3333  plane waves:    4539
 k-point 66 :   0.4444 0.2222 0.3333  plane waves:    4543
 k-point 67 :  -0.4444 0.2222 0.3333  plane waves:    4549
 k-point 68 :  -0.3333 0.2222 0.3333  plane waves:    4563
 k-point 69 :  -0.2222 0.2222 0.3333  plane waves:    4548
 k-point 70 :   0.3333 0.3333 0.3333  plane waves:    4542
 k-point 71 :   0.4444 0.3333 0.3333  plane waves:    4538
 k-point 72 :  -0.4444 0.3333 0.3333  plane waves:    4549
 k-point 73 :  -0.3333 0.3333 0.3333  plane waves:    4549
 k-point 74 :   0.4444 0.4444 0.3333  plane waves:    4547
 k-point 75 :  -0.4444 0.4444 0.3333  plane waves:    4546
 k-point 76 :   0.0000 0.0000 0.5000  plane waves:    4582
 k-point 77 :   0.1111 0.0000 0.5000  plane waves:    4568
 k-point 78 :   0.2222 0.0000 0.5000  plane waves:    4562
 k-point 79 :   0.3333 0.0000 0.5000  plane waves:    4556
 k-point 80 :   0.4444 0.0000 0.5000  plane waves:    4550
 k-point 81 :   0.1111 0.1111 0.5000  plane waves:    4564
 k-point 82 :   0.2222 0.1111 0.5000  plane waves:    4562
 k-point 83 :   0.3333 0.1111 0.5000  plane waves:    4550
 k-point 84 :   0.4444 0.1111 0.5000  plane waves:    4534
 k-point 85 :  -0.4444 0.1111 0.5000  plane waves:    4548
 k-point 86 :  -0.3333 0.1111 0.5000  plane waves:    4554
 k-point 87 :  -0.2222 0.1111 0.5000  plane waves:    4568
 k-point 88 :  -0.1111 0.1111 0.5000  plane waves:    4566
 k-point 89 :   0.2222 0.2222 0.5000  plane waves:    4548
 k-point 90 :   0.3333 0.2222 0.5000  plane waves:    4542
 k-point 91 :   0.4444 0.2222 0.5000  plane waves:    4548
 k-point 92 :  -0.4444 0.2222 0.5000  plane waves:    4550
 k-point 93 :  -0.3333 0.2222 0.5000  plane waves:    4550
 k-point 94 :  -0.2222 0.2222 0.5000  plane waves:    4564
 k-point 95 :   0.3333 0.3333 0.5000  plane waves:    4538
 k-point 96 :   0.4444 0.3333 0.5000  plane waves:    4534
 k-point 97 :  -0.4444 0.3333 0.5000  plane waves:    4538
 k-point 98 :  -0.3333 0.3333 0.5000  plane waves:    4538
 k-point 99 :   0.4444 0.4444 0.5000  plane waves:    4542
 k-point ** :  -0.4444 0.4444 0.5000  plane waves:    4558

 maximum and minimum number of plane-waves per node :      1162     1124

 maximum number of plane-waves:      4582
 maximum index in each direction: 
   IXMAX=   10   IYMAX=    9   IZMAX=   12
   IXMIN=  -10   IYMIN=  -10   IZMIN=  -13

 WARNING: aliasing errors must be expected set NGX to  42 to avoid them
 WARNING: aliasing errors must be expected set NGY to  40 to avoid them
 WARNING: aliasing errors must be expected set NGZ to  52 to avoid them
 aliasing errors are usually negligible using standard VASP settings
 and one can safely disregard these warnings

 parallel 3D FFT for wavefunctions:
    minimum data exchange during FFTs selected (reduces bandwidth)
 parallel 3D FFT for charge:
    minimum data exchange during FFTs selected (reduces bandwidth)


 total amount of memory used by VASP on root node   103514. kBytes
========================================================================

   base      :      30000. kBytes
   nonl-proj :      22298. kBytes
   fftplans  :        801. kBytes
   grid      :       1315. kBytes
   one-center:         12. kBytes
   wavefun   :      49088. kBytes
 
 Broyden mixing: mesh for mixing (old mesh)
   NGX = 19   NGY = 19   NGZ = 25
  (NGX  = 42   NGY  = 42   NGZ  = 56)
  gives a total of   9025 points

 initial charge density was supplied:
 charge density of overlapping atoms calculated
 number of electron      88.0000000 magnetization 
 keeping initial charge density in first step


--------------------------------------------------------------------------------------------------------


 Maximum index for augmentation-charges          358 (set IRDMAX)


--------------------------------------------------------------------------------------------------------


 First call to EWALD:  gamma=   0.321
 Maximum number of real-space cells 3x 3x 2
 Maximum number of reciprocal cells 3x 3x 3

 FEWALD executed in parallel
    FEWALD:  cpu time    0.00: real time    0.00


----------------------------------------- Iteration    1(   1)  ---------------------------------------


    POTLOK:  cpu time    0.02: real time    0.02
    SETDIJ:  cpu time    0.01: real time    0.01
     EDDAV:  cpu time   13.71: real time   13.75
 BZINTS: Fermi energy: 26.525412; 88.000000 electrons
         Band energy: 228.040991;  BLOECHL correction: -0.330583
       DOS:  cpu time    0.12: real time    0.12
    --------------------------------------------
      LOOP:  cpu time   13.85: real time   13.91

 eigenvalue-minimisations  : 10400
 total energy-change (2. order) : 0.1125128E+04  (-0.4576812E+04)
 number of electron      88.0000000 magnetization 
 augmentation part       88.0000000 magnetization 

 Free energy of the ion-electron system (eV)
  ---------------------------------------------------
  alpha Z        PSCENC =       203.12097145
  Ewald energy   TEWEN  =     -4458.46682499
  -1/2 Hartree   DENC   =     -1912.80868273
  -exchange  EXHF       =         0.00000000
  -V(xc)+E(xc)   XCENC  =       351.27514875
  PAW double counting   =      4005.61407458    -4368.32282157
  entropy T*S    EENTRO =         0.00000000
  eigenvalues    EBANDS =       228.04099128
  atomic energy  EATOM  =      7076.67474165
  ---------------------------------------------------
  free energy    TOTEN  =      1125.12759842 eV

  energy without entropy =     1125.12759842  energy(sigma->0) =     1125.12759842


--------------------------------------------------------------------------------------------------------




----------------------------------------- Iteration    1(   2)  ---------------------------------------


     EDDAV:  cpu time   15.48: real time   15.52
 BZINTS: Fermi energy:  8.209480; 88.000000 electrons
         Band energy:-842.849456;  BLOECHL correction:  0.000000
       DOS:  cpu time    0.07: real time    0.07
    --------------------------------------------
      LOOP:  cpu time   15.55: real time   15.60

 eigenvalue-minimisations  : 12392
 total energy-change (2. order) :-0.1070890E+04  (-0.1041070E+04)
 number of electron      88.0000000 magnetization 
 augmentation part       88.0000000 magnetization 

 Free energy of the ion-electron system (eV)
  ---------------------------------------------------
  alpha Z        PSCENC =       203.12097145
  Ewald energy   TEWEN  =     -4458.46682499
  -1/2 Hartree   DENC   =     -1912.80868273
  -exchange  EXHF       =         0.00000000
  -V(xc)+E(xc)   XCENC  =       351.27514875
  PAW double counting   =      4005.61407458    -4368.32282157
  entropy T*S    EENTRO =         0.00000000
  eigenvalues    EBANDS =      -842.84945578
  atomic energy  EATOM  =      7076.67474165
  ---------------------------------------------------
  free energy    TOTEN  =        54.23715136 eV

  energy without entropy =       54.23715136  energy(sigma->0) =       54.23715136


--------------------------------------------------------------------------------------------------------




----------------------------------------- Iteration    1(   3)  ---------------------------------------


     EDDAV:  cpu time   14.10: real time   14.14
 BZINTS: Fermi energy: -1.127780; 88.000000 electrons
         Band energy:-980.729459;  BLOECHL correction:  0.000000
       DOS:  cpu time    0.04: real time    0.04
    --------------------------------------------
      LOOP:  cpu time   14.14: real time   14.18

 eigenvalue-minimisations  : 10948
 total energy-change (2. order) :-0.1378800E+03  (-0.1369081E+03)
 number of electron      88.0000000 magnetization 
 augmentation part       88.0000000 magnetization 

 Free energy of the ion-electron system (eV)
  ---------------------------------------------------
  alpha Z        PSCENC =       203.12097145
  Ewald energy   TEWEN  =     -4458.46682499
  -1/2 Hartree   DENC   =     -1912.80868273
  -exchange  EXHF       =         0.00000000
  -V(xc)+E(xc)   XCENC  =       351.27514875
  PAW double counting   =      4005.61407458    -4368.32282157
  entropy T*S    EENTRO =         0.00000000
  eigenvalues    EBANDS =      -980.72945943
  atomic energy  EATOM  =      7076.67474165
  ---------------------------------------------------
  free energy    TOTEN  =       -83.64285229 eV

  energy without entropy =      -83.64285229  energy(sigma->0) =      -83.64285229


--------------------------------------------------------------------------------------------------------




----------------------------------------- Iteration    1(   4)  ---------------------------------------


     EDDAV:  cpu time   16.01: real time   16.05
 BZINTS: Fermi energy: -1.470551; 88.000000 electrons
         Band energy:-986.826129;  BLOECHL correction:  0.000000
       DOS:  cpu time    0.03: real time    0.03
    --------------------------------------------
      LOOP:  cpu time   16.04: real time   16.09

 eigenvalue-minimisations  : 12984
 total energy-change (2. order) :-0.6096670E+01  (-0.6056269E+01)
 number of electron      88.0000000 magnetization 
 augmentation part       88.0000000 magnetization 

 Free energy of the ion-electron system (eV)
  ---------------------------------------------------
  alpha Z        PSCENC =       203.12097145
  Ewald energy   TEWEN  =     -4458.46682499
  -1/2 Hartree   DENC   =     -1912.80868273
  -exchange  EXHF       =         0.00000000
  -V(xc)+E(xc)   XCENC  =       351.27514875
  PAW double counting   =      4005.61407458    -4368.32282157
  entropy T*S    EENTRO =         0.00000000
  eigenvalues    EBANDS =      -986.82612929
  atomic energy  EATOM  =      7076.67474165
  ---------------------------------------------------
  free energy    TOTEN  =       -89.73952215 eV

  energy without entropy =      -89.73952215  energy(sigma->0) =      -89.73952215


--------------------------------------------------------------------------------------------------------




----------------------------------------- Iteration    1(   5)  ---------------------------------------


     EDDAV:  cpu time   17.84: real time   17.89
 BZINTS: Fermi energy: -1.488905; 88.000000 electrons
         Band energy:-987.053392;  BLOECHL correction:  0.000000
       DOS:  cpu time    0.03: real time    0.03
    CHARGE:  cpu time    1.14: real time    1.14
    MIXING:  cpu time    0.00: real time    0.00
    --------------------------------------------
      LOOP:  cpu time   19.01: real time   19.06

 eigenvalue-minimisations  : 14920
 total energy-change (2. order) :-0.2272629E+00  (-0.2270302E+00)
 number of electron      88.0000353 magnetization 
 augmentation part       22.8779755 magnetization 

 Broyden mixing:
  rms(total) = 0.20699E+01    rms(broyden)= 0.20686E+01
  rms(prec ) = 0.33170E+01
  weight for this iteration     100.00

 Free energy of the ion-electron system (eV)
  ---------------------------------------------------
  alpha Z        PSCENC =       203.12097145
  Ewald energy   TEWEN  =     -4458.46682499
  -1/2 Hartree   DENC   =     -1912.80868273
  -exchange  EXHF       =         0.00000000
  -V(xc)+E(xc)   XCENC  =       351.27514875
  PAW double counting   =      4005.61407458    -4368.32282157
  entropy T*S    EENTRO =         0.00000000
  eigenvalues    EBANDS =      -987.05339219
  atomic energy  EATOM  =      7076.67474165
  ---------------------------------------------------
  free energy    TOTEN  =       -89.96678505 eV

  energy without entropy =      -89.96678505  energy(sigma->0) =      -89.96678505


--------------------------------------------------------------------------------------------------------




----------------------------------------- Iteration    1(   6)  ---------------------------------------


    POTLOK:  cpu time    0.01: real time    0.02
    SETDIJ:  cpu time    0.00: real time    0.00
    EDDIAG:  cpu time    3.11: real time    3.12
  RMM-DIIS:  cpu time   11.00: real time   11.03
    ORTHCH:  cpu time    0.30: real time    0.30
 BZINTS: Fermi energy:  0.955062; 88.000000 electrons
         Band energy:-884.643007;  BLOECHL correction:  0.000000
       DOS:  cpu time    0.03: real time    0.03
    CHARGE:  cpu time    1.11: real time    1.12
    MIXING:  cpu time    0.00: real time    0.00
    --------------------------------------------
      LOOP:  cpu time   15.58: real time   15.62

 eigenvalue-minimisations  : 11787
 total energy-change (2. order) : 0.1032546E+02  (-0.6574889E+01)
 number of electron      88.0000415 magnetization 
 augmentation part       21.7840575 magnetization 

 Broyden mixing:
  rms(total) = 0.57599E+00    rms(broyden)= 0.57526E+00
  rms(prec ) = 0.75065E+00
  weight for this iteration     100.00

 eigenvalues of (default mixing * dielectric matrix)
  average eigenvalue GAMMA=   0.9889
  0.9889

 Free energy of the ion-electron system (eV)
  ---------------------------------------------------
  alpha Z        PSCENC =       203.12097145
  Ewald energy   TEWEN  =     -4458.46682499
  -1/2 Hartree   DENC   =     -2011.37547253
  -exchange  EXHF       =         0.00000000
  -V(xc)+E(xc)   XCENC  =       359.15707323
  PAW double counting   =      4346.87073354    -4710.97954334
  entropy T*S    EENTRO =         0.00000000
  eigenvalues    EBANDS =      -884.64300666
  atomic energy  EATOM  =      7076.67474165
  ---------------------------------------------------
  free energy    TOTEN  =       -79.64132766 eV

  energy without entropy =      -79.64132766  energy(sigma->0) =      -79.64132766


--------------------------------------------------------------------------------------------------------




----------------------------------------- Iteration    1(   7)  ---------------------------------------


    POTLOK:  cpu time    0.01: real time    0.02
    SETDIJ:  cpu time    0.00: real time    0.00
    EDDIAG:  cpu time    3.09: real time    3.10
  RMM-DIIS:  cpu time   13.76: real time   13.80
    ORTHCH:  cpu time    0.30: real time    0.30
 BZINTS: Fermi energy:  1.157926; 88.000000 electrons
         Band energy:-874.747729;  BLOECHL correction:  0.000000
       DOS:  cpu time    0.03: real time    0.03
    CHARGE:  cpu time    1.11: real time    1.12
    MIXING:  cpu time    0.00: real time    0.00
    --------------------------------------------
      LOOP:  cpu time   18.32: real time   18.37

 eigenvalue-minimisations  : 15065
 total energy-change (2. order) : 0.1240907E+01  (-0.3265182E+00)
 number of electron      88.0000421 magnetization 
 augmentation part       21.6088879 magnetization 

 Broyden mixing:
  rms(total) = 0.38030E+00    rms(broyden)= 0.38020E+00
  rms(prec ) = 0.48272E+00
  weight for this iteration     100.00

 eigenvalues of (default mixing * dielectric matrix)
  average eigenvalue GAMMA=   1.6786
  1.1388  2.2184

 Free energy of the ion-electron system (eV)
  ---------------------------------------------------
  alpha Z        PSCENC =       203.12097145
  Ewald energy   TEWEN  =     -4458.46682499
  -1/2 Hartree   DENC   =     -2020.08308973
  -exchange  EXHF       =         0.00000000
  -V(xc)+E(xc)   XCENC  =       360.01001284
  PAW double counting   =      4442.29722998    -4807.20573333
  entropy T*S    EENTRO =         0.00000000
  eigenvalues    EBANDS =      -874.74772902
  atomic energy  EATOM  =      7076.67474165
  ---------------------------------------------------
  free energy    TOTEN  =       -78.40042115 eV

  energy without entropy =      -78.40042115  energy(sigma->0) =      -78.40042115


--------------------------------------------------------------------------------------------------------




----------------------------------------- Iteration    1(   8)  ---------------------------------------


    POTLOK:  cpu time    0.01: real time    0.02
    SETDIJ:  cpu time    0.00: real time    0.00
    EDDIAG:  cpu time    3.08: real time    3.09
  RMM-DIIS:  cpu time   11.11: real time   11.14
    ORTHCH:  cpu time    0.30: real time    0.30
 BZINTS: Fermi energy:  1.098391; 88.000000 electrons
         Band energy:-875.038400;  BLOECHL correction:  0.000000
       DOS:  cpu time    0.03: real time    0.03
    CHARGE:  cpu time    1.11: real time    1.12
    MIXING:  cpu time    0.00: real time    0.00
    --------------------------------------------
      LOOP:  cpu time   15.66: real time   15.70

 eigenvalue-minimisations  : 11921
 total energy-change (2. order) : 0.2911911E-01  (-0.5532883E-01)
 number of electron      88.0000418 magnetization 
 augmentation part       21.6983928 magnetization 

 Broyden mixing:
  rms(total) = 0.85363E-01    rms(broyden)= 0.85353E-01
  rms(prec ) = 0.14338E+00
  weight for this iteration     100.00

 eigenvalues of (default mixing * dielectric matrix)
  average eigenvalue GAMMA=   1.4891
  2.4949  0.9862  0.9862

 Free energy of the ion-electron system (eV)
  ---------------------------------------------------
  alpha Z        PSCENC =       203.12097145
  Ewald energy   TEWEN  =     -4458.46682499
  -1/2 Hartree   DENC   =     -2019.86640833
  -exchange  EXHF       =         0.00000000
  -V(xc)+E(xc)   XCENC  =       360.14609278
  PAW double counting   =      4516.79940791    -4881.74088251
  entropy T*S    EENTRO =         0.00000000
  eigenvalues    EBANDS =      -875.03840002
  atomic energy  EATOM  =      7076.67474165
  ---------------------------------------------------
  free energy    TOTEN  =       -78.37130204 eV

  energy without entropy =      -78.37130204  energy(sigma->0) =      -78.37130204


--------------------------------------------------------------------------------------------------------




----------------------------------------- Iteration    1(   9)  ---------------------------------------


    POTLOK:  cpu time    0.01: real time    0.02
    SETDIJ:  cpu time    0.00: real time    0.00
    EDDIAG:  cpu time    3.09: real time    3.10
  RMM-DIIS:  cpu time   12.70: real time   12.74
    ORTHCH:  cpu time    0.30: real time    0.30
 BZINTS: Fermi energy:  1.234091; 88.000000 electrons
         Band energy:-870.768088;  BLOECHL correction:  0.000000
       DOS:  cpu time    0.03: real time    0.03
    CHARGE:  cpu time    1.11: real time    1.12
    MIXING:  cpu time    0.00: real time    0.00
    --------------------------------------------
      LOOP:  cpu time   17.26: real time   17.30

 eigenvalue-minimisations  : 13741
 total energy-change (2. order) : 0.1964957E-01  (-0.7363435E-02)
 number of electron      88.0000419 magnetization 
 augmentation part       21.6719454 magnetization 

 Broyden mixing:
  rms(total) = 0.30672E-01    rms(broyden)= 0.30664E-01
  rms(prec ) = 0.50030E-01
  weight for this iteration     100.00

 eigenvalues of (default mixing * dielectric matrix)
  average eigenvalue GAMMA=   1.5000
  2.4508  1.0919  1.0919  1.3653

 Free energy of the ion-electron system (eV)
  ---------------------------------------------------
  alpha Z        PSCENC =       203.12097145
  Ewald energy   TEWEN  =     -4458.46682499
  -1/2 Hartree   DENC   =     -2024.21681334
  -exchange  EXHF       =         0.00000000
  -V(xc)+E(xc)   XCENC  =       360.56001741
  PAW double counting   =      4541.51771783    -4906.77337445
  entropy T*S    EENTRO =         0.00000000
  eigenvalues    EBANDS =      -870.76808803
  atomic energy  EATOM  =      7076.67474165
  ---------------------------------------------------
  free energy    TOTEN  =       -78.35165247 eV

  energy without entropy =      -78.35165247  energy(sigma->0) =      -78.35165247


--------------------------------------------------------------------------------------------------------




----------------------------------------- Iteration    1(  10)  ---------------------------------------


    POTLOK:  cpu time    0.01: real time    0.02
    SETDIJ:  cpu time    0.00: real time    0.00
    EDDIAG:  cpu time    3.11: real time    3.12
  RMM-DIIS:  cpu time   12.02: real time   12.05
    ORTHCH:  cpu time    0.31: real time    0.31
 BZINTS: Fermi energy:  1.233757; 88.000000 electrons
         Band energy:-869.682273;  BLOECHL correction:  0.000000
       DOS:  cpu time    0.03: real time    0.03
    CHARGE:  cpu time    1.11: real time    1.12
    MIXING:  cpu time    0.00: real time    0.00
    --------------------------------------------
      LOOP:  cpu time   16.59: real time   16.65

 eigenvalue-minimisations  : 13012
 total energy-change (2. order) :-0.5855031E-03  (-0.4352976E-02)
 number of electron      88.0000421 magnetization 
 augmentation part       21.6436123 magnetization 

 Broyden mixing:
  rms(total) = 0.17751E-01    rms(broyden)= 0.17732E-01
  rms(prec ) = 0.26499E-01
  weight for this iteration     100.00

 eigenvalues of (default mixing * dielectric matrix)
  average eigenvalue GAMMA=   1.6321
  2.5517  2.5517  0.9725  1.0422  1.0422

 Free energy of the ion-electron system (eV)
  ---------------------------------------------------
  alpha Z        PSCENC =       203.12097145
  Ewald energy   TEWEN  =     -4458.46682499
  -1/2 Hartree   DENC   =     -2025.21042964
  -exchange  EXHF       =         0.00000000
  -V(xc)+E(xc)   XCENC  =       360.66291857
  PAW double counting   =      4540.12805676    -4905.57939899
  entropy T*S    EENTRO =         0.00000000
  eigenvalues    EBANDS =      -869.68227278
  atomic energy  EATOM  =      7076.67474165
  ---------------------------------------------------
  free energy    TOTEN  =       -78.35223797 eV

  energy without entropy =      -78.35223797  energy(sigma->0) =      -78.35223797


--------------------------------------------------------------------------------------------------------




----------------------------------------- Iteration    1(  11)  ---------------------------------------


    POTLOK:  cpu time    0.01: real time    0.02
    SETDIJ:  cpu time    0.00: real time    0.00
    EDDIAG:  cpu time    3.12: real time    3.12
  RMM-DIIS:  cpu time   11.82: real time   11.86
    ORTHCH:  cpu time    0.30: real time    0.30
 BZINTS: Fermi energy:  1.236376; 88.000000 electrons
         Band energy:-870.413584;  BLOECHL correction:  0.000000
       DOS:  cpu time    0.03: real time    0.03
    CHARGE:  cpu time    1.12: real time    1.13
    MIXING:  cpu time    0.00: real time    0.00
    --------------------------------------------
      LOOP:  cpu time   16.41: real time   16.46

 eigenvalue-minimisations  : 12550
 total energy-change (2. order) : 0.5943928E-03  (-0.4011417E-03)
 number of electron      88.0000420 magnetization 
 augmentation part       21.6487804 magnetization 

 Broyden mixing:
  rms(total) = 0.25378E-02    rms(broyden)= 0.25359E-02
  rms(prec ) = 0.50183E-02
  weight for this iteration     100.00

 eigenvalues of (default mixing * dielectric matrix)
  average eigenvalue GAMMA=   1.5721
  2.7882  2.4642  1.1309  0.9273  1.0610  1.0610

 Free energy of the ion-electron system (eV)
  ---------------------------------------------------
  alpha Z        PSCENC =       203.12097145
  Ewald energy   TEWEN  =     -4458.46682499
  -1/2 Hartree   DENC   =     -2024.32986718
  -exchange  EXHF       =         0.00000000
  -V(xc)+E(xc)   XCENC  =       360.59971141
  PAW double counting   =      4534.83764544    -4900.37443728
  entropy T*S    EENTRO =         0.00000000
  eigenvalues    EBANDS =      -870.41358408
  atomic energy  EATOM  =      7076.67474165
  ---------------------------------------------------
  free energy    TOTEN  =       -78.35164358 eV

  energy without entropy =      -78.35164358  energy(sigma->0) =      -78.35164358


--------------------------------------------------------------------------------------------------------




----------------------------------------- Iteration    1(  12)  ---------------------------------------


    POTLOK:  cpu time    0.02: real time    0.02
    SETDIJ:  cpu time    0.00: real time    0.00
    EDDIAG:  cpu time    3.09: real time    3.10
  RMM-DIIS:  cpu time    9.38: real time    9.40
    ORTHCH:  cpu time    0.30: real time    0.30
 BZINTS: Fermi energy:  1.241320; 88.000000 electrons
         Band energy:-870.257720;  BLOECHL correction:  0.000000
       DOS:  cpu time    0.03: real time    0.03
    --------------------------------------------
      LOOP:  cpu time   12.82: real time   12.86

 eigenvalue-minimisations  :  9802
 total energy-change (2. order) : 0.1158265E-04  (-0.3727797E-04)
 number of electron      88.0000420 magnetization 
 augmentation part       21.6487804 magnetization 

 Free energy of the ion-electron system (eV)
  ---------------------------------------------------
  alpha Z        PSCENC =       203.12097145
  Ewald energy   TEWEN  =     -4458.46682499
  -1/2 Hartree   DENC   =     -2024.50518288
  -exchange  EXHF       =         0.00000000
  -V(xc)+E(xc)   XCENC  =       360.61102205
  PAW double counting   =      4535.00041603    -4900.52905558
  entropy T*S    EENTRO =         0.00000000
  eigenvalues    EBANDS =      -870.25771974
  atomic energy  EATOM  =      7076.67474165
  ---------------------------------------------------
  free energy    TOTEN  =       -78.35163200 eV

  energy without entropy =      -78.35163200  energy(sigma->0) =      -78.35163200


--------------------------------------------------------------------------------------------------------




 average (electrostatic) potential at core
  the test charge radii are     0.9254  0.7215  0.9698
  (the norm of the test charge is              1.0000)
       1 -52.9298       2 -53.5140       3 -52.9302       4 -53.5140       5 -72.6722
       6 -72.8236       7 -72.8235       8 -72.6725       9 -72.6726      10 -72.8237
      11 -72.8235      12 -72.6722      13 -93.1806      14 -93.1806
 
 
 
 E-fermi :   1.2413     XC(G=0):  -9.4681     alpha+bet :-10.2167


 k-point   1 :       0.0000    0.0000    0.0000
  band No.  band energies     occupation 
      1     -21.7210      2.00000
      2     -21.6474      2.00000
      3     -19.9323      2.00000
      4     -19.9305      2.00000
      5     -19.9302      2.00000
      6     -19.9215      2.00000
      7     -19.9013      2.00000
      8     -19.8828      2.00000
      9     -19.3929      2.00000
     10     -19.3730      2.00000
     11     -19.3441      2.00000
     12     -19.3258      2.00000
     13     -19.3180      2.00000
     14     -19.3113      2.00000
     15     -17.4069      2.00000
     16     -17.4026      2.00000
     17     -17.3566      2.00000
     18     -17.3404      2.00000
     19     -17.3175      2.00000
     20     -17.2126      2.00000
     21      -7.5985      2.00000
     22      -7.0490      2.00000
     23      -4.9088      2.00000
     24      -4.8593      2.00000
     25      -4.7547      2.00000
     26      -4.6164      2.00000
     27      -4.5287      2.00000
     28      -4.5246      2.00000
     29      -2.0050      2.00000
     30      -1.8900      2.00000
     31      -1.8215      2.00000
     32      -1.7988      2.00000
     33      -1.3148      2.00000
     34      -1.2562      2.00000
     35      -1.0696      2.00000
     36      -0.8172      2.00000
     37      -0.7562      2.00000
     38      -0.6177      2.00000
     39       0.5813      2.00000
     40       0.6368      2.00000
     41       0.7247      2.00000
     42       0.8810      2.00000
     43       0.9480      2.00000
     44       0.9932      2.00000
     45       6.5074      0.00000
     46       9.1557      0.00000
     47       9.2741      0.00000
     48       9.9568      0.00000
     49      10.3308      0.00000
     50      10.4344      0.00000
     51      10.5505      0.00000
     52      10.9686      0.00000

 k-point   2 :       0.1111    0.0000    0.0000
  band No.  band energies     occupation 
      1     -21.7196      2.00000
      2     -21.6478      2.00000
      3     -19.9331      2.00000
      4     -19.9322      2.00000
      5     -19.9280      2.00000
      6     -19.9201      2.00000
      7     -19.9009      2.00000
      8     -19.8833      2.00000
      9     -19.3945      2.00000
     10     -19.3686      2.00000
     11     -19.3445      2.00000
     12     -19.3288      2.00000
     13     -19.3181      2.00000
     14     -19.3112      2.00000
     15     -17.4035      2.00000
     16     -17.3967      2.00000
     17     -17.3540      2.00000
     18     -17.3478      2.00000
     19     -17.3254      2.00000
     20     -17.2179      2.00000
     21      -7.5518      2.00000
     22      -7.0372      2.00000
     23      -4.8960      2.00000
     24      -4.8507      2.00000
     25      -4.7922      2.00000
     26      -4.5752      2.00000
     27      -4.5476      2.00000
     28      -4.5241      2.00000
     29      -2.0122      2.00000
     30      -1.8873      2.00000
     31      -1.7962      2.00000
     32      -1.7856      2.00000
     33      -1.3440      2.00000
     34      -1.2365      2.00000
     35      -1.0958      2.00000
     36      -0.8577      2.00000
     37      -0.7649      2.00000
     38      -0.6905      2.00000
     39       0.5937      2.00000
     40       0.6424      2.00000
     41       0.7285      2.00000
     42       0.8380      2.00000
     43       0.9036      2.00000
     44       0.9940      2.00000
     45       6.6627      0.00000
     46       9.1996      0.00000
     47       9.3603      0.00000
     48       9.9632      0.00000
     49      10.2855      0.00000
     50      10.3269      0.00000
     51      10.4205      0.00000
     52      10.7200      0.00000

 k-point   3 :       0.2222    0.0000    0.0000
  band No.  band energies     occupation 
      1     -21.7149      2.00000
      2     -21.6496      2.00000
      3     -19.9360      2.00000
      4     -19.9321      2.00000
      5     -19.9258      2.00000
      6     -19.9170      2.00000
      7     -19.8996      2.00000
      8     -19.8847      2.00000
      9     -19.4006      2.00000
     10     -19.3615      2.00000
     11     -19.3455      2.00000
     12     -19.3300      2.00000
     13     -19.3183      2.00000
     14     -19.3110      2.00000
     15     -17.3949      2.00000
     16     -17.3887      2.00000
     17     -17.3799      2.00000
     18     -17.3403      2.00000
     19     -17.3304      2.00000
     20     -17.2332      2.00000
     21      -7.4274      2.00000
     22      -7.0113      2.00000
     23      -4.8753      2.00000
     24      -4.8324      2.00000
     25      -4.8191      2.00000
     26      -4.5774      2.00000
     27      -4.5405      2.00000
     28      -4.5216      2.00000
     29      -2.0047      2.00000
     30      -1.8766      2.00000
     31      -1.7917      2.00000
     32      -1.7143      2.00000
     33      -1.4293      2.00000
     34      -1.1839      2.00000
     35      -1.1636      2.00000
     36      -1.0315      2.00000
     37      -0.7910      2.00000
     38      -0.7909      2.00000
     39       0.5858      2.00000
     40       0.6704      2.00000
     41       0.7232      2.00000
     42       0.7723      2.00000
     43       0.8000      2.00000
     44       0.9872      2.00000
     45       7.0784      0.00000
     46       9.2842      0.00000
     47       9.5678      0.00000
     48       9.9692      0.00000
     49      10.2963      0.00000
     50      10.3054      0.00000
     51      10.3628      0.00000
     52      10.6208      0.00000

 k-point   4 :       0.3333    0.0000    0.0000
  band No.  band energies     occupation 
      1     -21.7074      2.00000
      2     -21.6539      2.00000
      3     -19.9385      2.00000
      4     -19.9318      2.00000
      5     -19.9239      2.00000
      6     -19.9133      2.00000
      7     -19.8977      2.00000
      8     -19.8867      2.00000
      9     -19.4109      2.00000
     10     -19.3611      2.00000
     11     -19.3467      2.00000
     12     -19.3193      2.00000
     13     -19.3185      2.00000
     14     -19.3107      2.00000
     15     -17.4390      2.00000
     16     -17.3807      2.00000
     17     -17.3550      2.00000
     18     -17.3391      2.00000
     19     -17.3232      2.00000
     20     -17.2561      2.00000
     21      -7.2674      2.00000
     22      -6.9964      2.00000
     23      -4.9000      2.00000
     24      -4.7973      2.00000
     25      -4.7619      2.00000
     26      -4.6043      2.00000
     27      -4.5659      2.00000
     28      -4.5097      2.00000
     29      -1.9687      2.00000
     30      -1.8558      2.00000
     31      -1.7928      2.00000
     32      -1.6547      2.00000
     33      -1.5455      2.00000
     34      -1.2810      2.00000
     35      -1.2201      2.00000
     36      -1.1144      2.00000
     37      -0.8533      2.00000
     38      -0.8323      2.00000
     39       0.5422      2.00000
     40       0.5833      2.00000
     41       0.6959      2.00000
     42       0.7395      2.00000
     43       0.8384      2.00000
     44       0.9599      2.00000
     45       7.6325      0.00000
     46       9.3233      0.00000
     47       9.6290      0.00000
     48      10.1196      0.00000
     49      10.2203      0.00000
     50      10.2874      0.00000
     51      10.4857      0.00000
     52      10.6197      0.00000

 k-point   5 :       0.4444    0.0000    0.0000
  band No.  band energies     occupation 
      1     -21.7005      2.00000
      2     -21.6589      2.00000
      3     -19.9401      2.00000
[...]
      8     -19.8528      2.00000
      9     -19.3585      2.00000
     10     -19.3583      2.00000
     11     -19.3485      2.00000
     12     -19.3483      2.00000
     13     -19.3304      2.00000
     14     -19.3303      2.00000
     15     -17.4181      2.00000
     16     -17.4179      2.00000
     17     -17.3390      2.00000
     18     -17.3389      2.00000
     19     -17.3109      2.00000
     20     -17.3108      2.00000
     21      -7.0947      2.00000
     22      -7.0947      2.00000
     23      -4.8445      2.00000
     24      -4.8443      2.00000
     25      -4.6219      2.00000
     26      -4.6218      2.00000
     27      -4.5268      2.00000
     28      -4.5267      2.00000
     29      -2.0139      2.00000
     30      -2.0138      2.00000
     31      -1.8444      2.00000
     32      -1.8442      2.00000
     33      -1.6092      2.00000
     34      -1.6091      2.00000
     35      -0.9869      2.00000
     36      -0.9868      2.00000
     37      -0.8796      2.00000
     38      -0.8795      2.00000
     39       0.6585      2.00000
     40       0.6586      2.00000
     41       0.7820      2.00000
     42       0.7820      2.00000
     43       0.9542      2.00000
     44       0.9544      2.00000
     45       8.9309      0.00000
     46       8.9317      0.00000
     47       9.8401      0.00000
     48       9.8809      0.00000
     49      10.1060      0.00000
     50      10.1621      0.00000
     51      10.2394      0.00000
     52      10.5989      0.00000

 k-point  97 :      -0.4444    0.3333    0.5000
  band No.  band energies     occupation 
      1     -21.6897      2.00000
      2     -21.6897      2.00000
      3     -19.9442      2.00000
      4     -19.9442      2.00000
      5     -19.9202      2.00000
      6     -19.9202      2.00000
      7     -19.8526      2.00000
      8     -19.8526      2.00000
      9     -19.3609      2.00000
     10     -19.3607      2.00000
     11     -19.3533      2.00000
     12     -19.3532      2.00000
     13     -19.3249      2.00000
     14     -19.3248      2.00000
     15     -17.4071      2.00000
     16     -17.4070      2.00000
     17     -17.3590      2.00000
     18     -17.3590      2.00000
     19     -17.3083      2.00000
     20     -17.3082      2.00000
     21      -7.0438      2.00000
     22      -7.0437      2.00000
     23      -4.8091      2.00000
     24      -4.8089      2.00000
     25      -4.6704      2.00000
     26      -4.6704      2.00000
     27      -4.5242      2.00000
     28      -4.5241      2.00000
     29      -2.0061      2.00000
     30      -2.0060      2.00000
     31      -1.8551      2.00000
     32      -1.8550      2.00000
     33      -1.5835      2.00000
     34      -1.5834      2.00000
     35      -1.0485      2.00000
     36      -1.0485      2.00000
     37      -0.8724      2.00000
     38      -0.8724      2.00000
     39       0.5796      2.00000
     40       0.5796      2.00000
     41       0.7895      2.00000
     42       0.7896      2.00000
     43       0.9167      2.00000
     44       0.9168      2.00000
     45       9.3574      0.00000
     46       9.3594      0.00000
     47       9.7538      0.00000
     48       9.7714      0.00000
     49      10.0828      0.00000
     50      10.2852      0.00000
     51      10.3740      0.00000
     52      10.4927      0.00000

 k-point  98 :      -0.3333    0.3333    0.5000
  band No.  band energies     occupation 
      1     -21.6886      2.00000
      2     -21.6886      2.00000
      3     -19.9449      2.00000
      4     -19.9449      2.00000
      5     -19.9173      2.00000
      6     -19.9173      2.00000
      7     -19.8537      2.00000
      8     -19.8537      2.00000
      9     -19.3660      2.00000
     10     -19.3658      2.00000
     11     -19.3541      2.00000
     12     -19.3539      2.00000
     13     -19.3199      2.00000
     14     -19.3198      2.00000
     15     -17.3903      2.00000
     16     -17.3903      2.00000
     17     -17.3788      2.00000
     18     -17.3787      2.00000
     19     -17.3100      2.00000
     20     -17.3099      2.00000
     21      -7.0133      2.00000
     22      -7.0132      2.00000
     23      -4.7894      2.00000
     24      -4.7893      2.00000
     25      -4.6878      2.00000
     26      -4.6876      2.00000
     27      -4.5462      2.00000
     28      -4.5461      2.00000
     29      -2.0021      2.00000
     30      -2.0020      2.00000
     31      -1.8032      2.00000
     32      -1.8030      2.00000
     33      -1.5438      2.00000
     34      -1.5437      2.00000
     35      -1.1151      2.00000
     36      -1.1150      2.00000
     37      -0.8689      2.00000
     38      -0.8689      2.00000
     39       0.5227      2.00000
     40       0.5227      2.00000
     41       0.7749      2.00000
     42       0.7749      2.00000
     43       0.8558      2.00000
     44       0.8559      2.00000
     45       9.4511      0.00000
     46       9.4527      0.00000
     47       9.8400      0.00000
     48       9.8462      0.00000
     49      10.1824      0.00000
     50      10.2163      0.00000
     51      10.5317      0.00000
     52      10.6466      0.00000

 k-point  99 :       0.4444    0.4444    0.5000
  band No.  band energies     occupation 
      1     -21.6911      2.00000
      2     -21.6910      2.00000
      3     -19.9420      2.00000
      4     -19.9419      2.00000
      5     -19.9247      2.00000
      6     -19.9247      2.00000
      7     -19.8518      2.00000
      8     -19.8518      2.00000
      9     -19.3573      2.00000
     10     -19.3570      2.00000
     11     -19.3455      2.00000
     12     -19.3452      2.00000
     13     -19.3357      2.00000
     14     -19.3355      2.00000
     15     -17.4203      2.00000
     16     -17.4201      2.00000
     17     -17.3275      2.00000
     18     -17.3275      2.00000
     19     -17.3202      2.00000
     20     -17.3201      2.00000
     21      -7.0870      2.00000
     22      -7.0870      2.00000
     23      -4.8636      2.00000
     24      -4.8634      2.00000
     25      -4.5955      2.00000
     26      -4.5954      2.00000
     27      -4.5165      2.00000
     28      -4.5165      2.00000
     29      -2.0533      2.00000
     30      -2.0533      2.00000
     31      -1.8642      2.00000
     32      -1.8640      2.00000
     33      -1.6236      2.00000
     34      -1.6235      2.00000
     35      -0.9714      2.00000
     36      -0.9714      2.00000
     37      -0.8925      2.00000
     38      -0.8924      2.00000
     39       0.6766      2.00000
     40       0.6766      2.00000
     41       0.8063      2.00000
     42       0.8064      2.00000
     43       0.9773      2.00000
     44       0.9774      2.00000
     45       9.0282      0.00000
     46       9.0289      0.00000
     47       9.8454      0.00000
     48       9.9507      0.00000
     49      10.1399      0.00000
     50      10.1484      0.00000
     51      10.1588      0.00000
     52      10.2386      0.00000

 k-point 100 :      -0.4444    0.4444    0.5000
  band No.  band energies     occupation 
      1     -21.6906      2.00000
      2     -21.6906      2.00000
      3     -19.9432      2.00000
      4     -19.9432      2.00000
      5     -19.9228      2.00000
      6     -19.9228      2.00000
      7     -19.8517      2.00000
      8     -19.8516      2.00000
      9     -19.3574      2.00000
     10     -19.3571      2.00000
     11     -19.3502      2.00000
     12     -19.3501      2.00000
     13     -19.3314      2.00000
     14     -19.3313      2.00000
     15     -17.4159      2.00000
     16     -17.4158      2.00000
     17     -17.3417      2.00000
     18     -17.3417      2.00000
     19     -17.3129      2.00000
     20     -17.3129      2.00000
     21      -7.0669      2.00000
     22      -7.0668      2.00000
     23      -4.8503      2.00000
     24      -4.8501      2.00000
     25      -4.6174      2.00000
     26      -4.6173      2.00000
     27      -4.5132      2.00000
     28      -4.5132      2.00000
     29      -2.0433      2.00000
     30      -2.0433      2.00000
     31      -1.8737      2.00000
     32      -1.8735      2.00000
     33      -1.6151      2.00000
     34      -1.6150      2.00000
     35      -0.9989      2.00000
     36      -0.9989      2.00000
     37      -0.8839      2.00000
     38      -0.8839      2.00000
     39       0.6418      2.00000
     40       0.6419      2.00000
     41       0.8097      2.00000
     42       0.8097      2.00000
     43       0.9632      2.00000
     44       0.9633      2.00000
     45       9.1983      0.00000
     46       9.1996      0.00000
     47       9.8671      0.00000
     48       9.9399      0.00000
     49      10.0365      0.00000
     50      10.1570      0.00000
     51      10.2645      0.00000
     52      10.3665      0.00000


--------------------------------------------------------------------------------------------------------


 soft charge-density along one line, spin component           1
         0         1         2         3         4         5         6         7         8         9
 total charge-density along one line
 
 pseudopotential strength for first ion, spin component:           1
-23.198   0.004   0.000  12.725  -0.003   0.000   0.000   0.000
  0.004 -23.206   0.000  -0.003  12.731   0.000   0.000   0.000
  0.000   0.000 -23.203   0.000   0.000  12.729   0.000   0.000
 12.725  -0.003   0.000  -2.097   0.002   0.000   0.000   0.000
 -0.003  12.731   0.000   0.002  -2.101   0.000   0.000   0.000
  0.000   0.000  12.729   0.000   0.000  -2.100   0.000   0.000
  0.000   0.000   0.000   0.000   0.000   0.000   1.441  -0.023
  0.000   0.000   0.000   0.000   0.000   0.000  -0.023  -0.013
 total augmentation occupancy for first ion, spin component:           1
  2.007  -0.001   0.000   0.014  -0.001   0.000   0.000   0.000
 -0.001   2.008   0.000  -0.001   0.014   0.000   0.000   0.000
  0.000   0.000   2.007   0.000   0.000   0.012   0.000   0.000
  0.014  -0.001   0.000   0.037   0.000   0.000   0.000   0.000
 -0.001   0.014   0.000   0.000   0.033   0.000   0.000   0.000
  0.000   0.000   0.012   0.000   0.000   0.030   0.000   0.000
  0.000   0.000   0.000   0.000   0.000   0.000   0.472   0.174
  0.000   0.000   0.000   0.000   0.000   0.000   0.174   0.065


------------------------ aborting loop because EDIFF is reached ----------------------------------------


 


 total charge     
 
# of ion     s       p       d       tot
----------------------------------------
  1        0.043   5.996   0.000   6.039
  2        0.038   5.986   0.000   6.024
  3        0.043   5.996   0.000   6.039
  4        0.038   5.986   0.000   6.024
  5        1.579   3.594   0.000   5.174
  6        1.578   3.587   0.000   5.165
  7        1.574   3.586   0.000   5.160
  8        1.579   3.594   0.000   5.174
  9        1.579   3.594   0.000   5.174
 10        1.575   3.586   0.000   5.160
 11        1.578   3.587   0.000   5.165
 12        1.579   3.594   0.000   5.174
 13        1.229   2.280   0.000   3.509
 14        1.229   2.280   0.000   3.509
------------------------------------------------
tot       15.244  57.246   0.000  72.490
 
    CHARGE:  cpu time    1.11: real time    1.12
    FORLOC:  cpu time    0.00: real time    0.00
    FORNL :  cpu time    5.03: real time    5.05
    STRESS:  cpu time    5.13: real time    5.14
    FORCOR:  cpu time    0.02: real time    0.02
    FORHAR:  cpu time    0.01: real time    0.01
    MIXING:  cpu time    0.00: real time    0.00
    FORVDW:  cpu time    0.00: real time    0.00

  FORCE on cell =-STRESS in cart. coord.  units (eV):
  Direction    XX          YY          ZZ          XY          YZ          ZX
  --------------------------------------------------------------------------------------
  Alpha Z   203.12097   203.12097   203.12097
  Ewald   -1559.27177 -1417.08235 -1482.12404    -0.00017     0.00142     0.00000
  Hartree   644.36359   706.64665   673.45465     0.00009     0.00059     0.00000
  E(xc)    -441.95266  -441.80590  -441.80203     0.00000     0.00001     0.00000
  Local    -405.54378  -604.05544  -511.60267     0.00008    -0.00089     0.00000
  n-local  -141.65962  -139.00031  -138.15469     0.19225    -0.01050     0.00072
  augment   256.50357   256.51350   257.38630     0.00001     0.00002     0.00000
  Kinetic  1448.78021  1439.64011  1443.53228    -0.93138     0.08954    -0.00993
  Fock        0.00000     0.00000     0.00000     0.00000     0.00000     0.00000
  -------------------------------------------------------------------------------------
  Total       4.34050     3.97723     3.81077     0.00000     0.00000     0.00000
  in kB      41.16290    37.71788    36.13924     0.00000     0.00000     0.00000
  external pressure =       38.34 kB  Pullay stress =        0.00 kB


 VOLUME and BASIS-vectors are now :
 -----------------------------------------------------------------------------
  energy-cutoff  :      520.00
  volume of cell :      168.94
      direct lattice vectors                 reciprocal lattice vectors
    -2.766659000 -4.425250000  0.000000000    -0.180723392 -0.112987967  0.000000000
     2.766659000 -4.425250000  0.000000000     0.180723392 -0.112987967  0.000000000
     0.000000000  0.000000000  6.899550000     0.000000000  0.000000000  0.144936989

  length of vectors
     5.218930885  5.218930885  6.899550000     0.213136635  0.213136635  0.144936989


 FORCES acting on ions
    electron-ion (+dipol)            ewald-force                    non-local-force                 convergence-correction
 -----------------------------------------------------------------------------------------------
   0.858E-03 0.243E-03 -.165E-03   -.961E-04 0.120E-02 0.270E-03   0.136E-19 0.000E+00 0.000E+00   -.584E-05 -.522E-05 -.119E-04
   -.762E-03 -.969E+00 -.616E-04   -.195E-03 -.184E+00 -.218E-02   0.000E+00 0.117E+01 0.000E+00   -.525E-06 0.588E-02 0.144E-03
   -.172E-02 0.307E-03 -.385E-03   -.961E-04 0.110E-02 -.105E-02   -.136E-19 0.000E+00 0.000E+00   0.744E-05 -.514E-05 0.128E-04
   -.629E-03 0.969E+00 -.555E-05   0.230E-03 0.184E+00 0.227E-02   0.000E+00 -.117E+01 0.000E+00   -.100E-04 -.587E-02 -.145E-03
   0.404E-03 0.888E+02 0.128E+03   0.158E-03 -.114E+03 -.164E+03   0.000E+00 0.254E+02 0.356E+02   -.288E-05 -.390E-01 -.502E-01
   -.126E+03 -.101E+03 -.329E-02   0.160E+03 0.125E+03 -.108E-02   -.341E+02 -.244E+02 0.000E+00   0.506E-01 0.301E-01 0.123E-03
   0.126E+03 -.101E+03 -.356E-02   -.160E+03 0.125E+03 -.108E-02   0.341E+02 -.244E+02 0.000E+00   -.506E-01 0.301E-01 0.132E-03
   -.244E-03 0.888E+02 -.128E+03   0.158E-03 -.114E+03 0.164E+03   0.000E+00 0.254E+02 -.356E+02   -.251E-05 -.390E-01 0.503E-01
   -.171E-02 -.888E+02 0.128E+03   -.171E-03 0.114E+03 -.164E+03   0.000E+00 -.254E+02 0.356E+02   0.702E-05 0.390E-01 -.503E-01
   -.126E+03 0.101E+03 0.321E-02   0.160E+03 -.125E+03 0.148E-02   -.341E+02 0.244E+02 0.000E+00   0.506E-01 -.301E-01 -.124E-03
   0.126E+03 0.101E+03 0.349E-02   -.160E+03 -.125E+03 0.148E-02   0.341E+02 0.244E+02 0.000E+00   -.506E-01 -.301E-01 -.133E-03
   -.106E-02 -.888E+02 -.128E+03   -.171E-03 0.114E+03 0.164E+03   0.000E+00 -.254E+02 -.356E+02   0.665E-05 0.390E-01 0.501E-01
   -.118E-02 -.709E+01 -.832E-03   0.282E-03 0.540E+01 -.107E-02   0.000E+00 0.152E+01 -.108E-18   -.669E-06 -.481E-02 0.115E-03
   -.157E-02 0.709E+01 0.835E-03   -.232E-03 -.540E+01 0.113E-02   0.000E+00 -.152E+01 0.108E-18   0.587E-05 0.481E-02 -.115E-03
 -----------------------------------------------------------------------------------------------
   -.886E-02 0.113E-02 -.385E-03   -.251E-14 0.373E-13 0.426E-13   0.711E-14 0.711E-14 0.000E+00   0.542E-05 0.195E-05 -.583E-06
 
 
 POSITION                                       TOTAL-FORCE (eV/Angst)
 -----------------------------------------------------------------------------------
      1.38333     -2.21263      0.00000         0.000000      0.000000      0.000000
      1.38333     -4.97177      1.72489         0.000000      0.025794      0.000000
      1.38333     -2.21263      3.44978         0.000000      0.000000      0.000000
     -1.38333     -3.87873      5.17466         0.000000     -0.025794      0.000000
     -1.38333     -4.39374      0.51825         0.000000      0.019222      0.036286
     -0.16991     -2.66482      1.72489         0.046950      0.088388      0.000000
      0.16991     -7.09007      1.72489        -0.046950      0.088388      0.000000
     -1.38333     -4.39374      2.93153         0.000000      0.019222     -0.036286
      1.38333     -4.45676      3.96802         0.000000     -0.019222      0.036286
     -0.16991     -1.76043      5.17466         0.046950     -0.088388      0.000000
      0.16991     -6.18568      5.17466        -0.046950     -0.088388      0.000000
      1.38333     -4.45676      6.38130         0.000000     -0.019222     -0.036286
     -1.38333     -3.53934      1.72489         0.000000     -0.166828      0.000000
      1.38333     -5.31116      5.17466         0.000000      0.166828      0.000000
 -----------------------------------------------------------------------------------
    total drift:                               -0.008860      0.001130     -0.000386


--------------------------------------------------------------------------------------------------------



  FREE ENERGIE OF THE ION-ELECTRON SYSTEM (eV)
  ---------------------------------------------------
  free  energy   TOTEN  =       -78.35163200 eV

  energy  without entropy=      -78.35163200  energy(sigma->0) =      -78.35163200
 


--------------------------------------------------------------------------------------------------------


    POTLOK:  cpu time    0.02: real time    0.02


--------------------------------------------------------------------------------------------------------


     LOOP+:  cpu time  202.75: real time  203.36
    4ORBIT:  cpu time    0.00: real time    0.00
 


 total charge     
 
# of ion     s       p       d       tot
----------------------------------------
  1        0.043   5.996   0.000   6.039
  2        0.038   5.986   0.000   6.024
  3        0.043   5.996   0.000   6.039
  4        0.038   5.986   0.000   6.024
  5        1.579   3.594   0.000   5.174
  6        1.578   3.587   0.000   5.165
  7        1.574   3.586   0.000   5.160
  8        1.579   3.594   0.000   5.174
  9        1.579   3.594   0.000   5.174
 10        1.575   3.586   0.000   5.160
 11        1.578   3.587   0.000   5.165
 12        1.579   3.594   0.000   5.174
 13        1.229   2.280   0.000   3.509
 14        1.229   2.280   0.000   3.509
------------------------------------------------
tot       15.244  57.246   0.000  72.490
 
 BZINTS: Fermi energy:  1.241320; 88.000000 electrons
         Band energy:-870.257720;  BLOECHL correction:  0.000000

 total amount of memory used by VASP on root node   103514. kBytes
========================================================================

   base      :      30000. kBytes
   nonl-proj :      22298. kBytes
   fftplans  :        801. kBytes
   grid      :       1315. kBytes
   one-center:         12. kBytes
   wavefun   :      49088. kBytes
 
  
  
 General timing and accounting informations for this job:
 ========================================================
  
                  Total CPU time used (sec):      211.712
                            User time (sec):      211.348
                          System time (sec):        0.364
                         Elapsed time (sec):      213.691
  
                   Maximum memory used (kb):      205356.
                   Average memory used (kb):           0.
  
                          Minor page faults:        88706
                          Major page faults:            0
                 Voluntary context switches:        30570
