 vasp.5.3.2 13Sep12 (build Mar 19 2013 12:21:59) complex                        
  
 executed on             LinuxIFC date 2013.08.19  09:30:10
 running on    8 total cores
 distrk:  each k-point on    8 cores,    1 groups
 distr:  one band on NCORES_PER_BAND=   4 cores,    2 groups


--------------------------------------------------------------------------------------------------------


 INCAR:
 POTCAR:  PAW_PBE K_sv 06Sep2000                  
 POTCAR:  PAW_PBE O 08Apr2002                     
 POTCAR:  PAW_PBE S 17Jan2003                     
 POTCAR:  PAW_PBE K_sv 06Sep2000                  
   VRHFIN =K:  3s3p4s                                                           
   LEXCH  = PE                                                                  
   EATOM  =   774.7423 eV,   56.9420 Ry                                         
                                                                                
   TITEL  = PAW_PBE K_sv 06Sep2000                                              
   LULTRA =        F    use ultrasoft PP ?                                      
   IUNSCR =        1    unscreen: 0-lin 1-nonlin 2-no                           
   RPACOR =    2.200    partial core radius                                     
   POMASS =   39.098; ZVAL   =    9.000    mass and valenz                      
   RCORE  =    2.300    outmost cutoff radius                                   
   RWIGS  =    3.000; RWIGS  =    1.588    wigner-seitz radius (au A)           
   ENMAX  =  259.216; ENMIN  =  194.412 eV                                      
   RCLOC  =    2.005    cutoff for local pot                                    
   LCOR   =        T    correct aug charges                                     
   LPAW   =        T    paw PP                                                  
   EAUG   =  427.853                                                            
   DEXC   =     .000                                                            
   RMAX   =    2.864    core radius for proj-oper                               
   RAUG   =    1.300    factor for augmentation sphere                          
   RDEP   =    2.372    radius for radial grids                                 
   QCUT   =   -4.365; QGAM   =    8.730    optimization parameters              
                                                                                
   Description                                                                  
     l     E      TYP  RCUT    TYP  RCUT                                        
     0   .000     23  2.300                                                     
     0   .000     23  2.300                                                     
     1   .000     23  2.300                                                     
     1 -1.500     23  2.300                                                     
     2   .000     23  2.300                                                     
  local pseudopotential read in
  partial core-charges read in
  atomic valenz-charges read in
  non local Contribution for L=           0  read in
    real space projection operators read in
  non local Contribution for L=           0  read in
    real space projection operators read in
  non local Contribution for L=           1  read in
    real space projection operators read in
  non local Contribution for L=           1  read in
    real space projection operators read in
  non local Contribution for L=           2  read in
    real space projection operators read in
    PAW grid and wavefunctions read in
 
   number of l-projection  operators is LMAX  =           5
   number of lm-projection operators is LMMAX =          13
 
 POTCAR:  PAW_PBE O 08Apr2002                     
   VRHFIN =O: s2p4                                                              
   LEXCH  = PE                                                                  
   EATOM  =   432.3788 eV,   31.7789 Ry                                         
                                                                                
   TITEL  = PAW_PBE O 08Apr2002                                                 
   LULTRA =        F    use ultrasoft PP ?                                      
   IUNSCR =        0    unscreen: 0-lin 1-nonlin 2-no                           
   RPACOR =     .000    partial core radius                                     
   POMASS =   16.000; ZVAL   =    6.000    mass and valenz                      
   RCORE  =    1.520    outmost cutoff radius                                   
   RWIGS  =    1.550; RWIGS  =     .820    wigner-seitz radius (au A)           
   ENMAX  =  400.000; ENMIN  =  300.000 eV                                      
   ICORE  =        2    local potential                                         
   LCOR   =        T    correct aug charges                                     
   LPAW   =        T    paw PP                                                  
   EAUG   =  605.392                                                            
   DEXC   =     .000                                                            
   RMAX   =    2.264    core radius for proj-oper                               
   RAUG   =    1.300    factor for augmentation sphere                          
   RDEP   =    1.550    radius for radial grids                                 
   QCUT   =   -5.520; QGAM   =   11.041    optimization parameters              
                                                                                
   Description                                                                  
     l     E      TYP  RCUT    TYP  RCUT                                        
     0   .000     23  1.200                                                     
     0  -.700     23  1.200                                                     
     1   .000     23  1.520                                                     
     1   .600     23  1.520                                                     
     2   .000      7  1.500                                                     
  local pseudopotential read in
  atomic valenz-charges read in
  non local Contribution for L=           0  read in
    real space projection operators read in
  non local Contribution for L=           0  read in
    real space projection operators read in
  non local Contribution for L=           1  read in
    real space projection operators read in
  non local Contribution for L=           1  read in
    real space projection operators read in
    PAW grid and wavefunctions read in
 
   number of l-projection  operators is LMAX  =           4
   number of lm-projection operators is LMMAX =           8
 
 POTCAR:  PAW_PBE S 17Jan2003                     
   VRHFIN =S : s2p4                                                             
   LEXCH  = PE                                                                  
   EATOM  =   276.8230 eV,   20.3459 Ry                                         
                                                                                
   TITEL  = PAW_PBE S 17Jan2003                                                 
   LULTRA =        F    use ultrasoft PP ?                                      
   IUNSCR =        1    unscreen: 0-lin 1-nonlin 2-no                           
   RPACOR =    1.500    partial core radius                                     
   POMASS =   32.066; ZVAL   =    6.000    mass and valenz                      
   RCORE  =    1.900    outmost cutoff radius                                   
   RWIGS  =    2.200; RWIGS  =    1.164    wigner-seitz radius (au A)           
   ENMAX  =  280.000; ENMIN  =  194.016 eV                                      
   ICORE  =        2    local potential                                         
   LCOR   =        T    correct aug charges                                     
   LPAW   =        T    paw PP                                                  
   EAUG   =  335.092                                                            
   DEXC   =     .000                                                            
   RMAX   =    2.867    core radius for proj-oper                               
   RAUG   =    1.300    factor for augmentation sphere                          
   RDEP   =    1.954    radius for radial grids                                 
   QCUT   =   -4.360; QGAM   =    8.721    optimization parameters              
                                                                                
   Description                                                                  
     l     E      TYP  RCUT    TYP  RCUT                                        
     0   .000     23  1.900                                                     
     0   .000     23  1.900                                                     
     1   .000     23  1.900                                                     
     1   .000     23  1.900                                                     
     2   .000     23  1.900                                                     
  local pseudopotential read in
  partial core-charges read in
  atomic valenz-charges read in
  non local Contribution for L=           0  read in
    real space projection operators read in
  non local Contribution for L=           0  read in
    real space projection operators read in
  non local Contribution for L=           1  read in
    real space projection operators read in
  non local Contribution for L=           1  read in
    real space projection operators read in
    PAW grid and wavefunctions read in
 
   number of l-projection  operators is LMAX  =           4
   number of lm-projection operators is LMMAX =           8
 
 Optimization of the real space projectors (new method)

 maximal supplied QI-value         = 16.25
 optimisation between [QCUT,QGAM] = [ 11.38, 28.60] = [ 36.24,229.10] Ry 
 Optimized for a Real-space Cutoff    1.29 Angstroem

   l    n(q)    QCUT    max X(q) W(low)/X(q) W(high)/X(q)  e(spline) 
   0     11    11.376     6.336    0.10E-04    0.46E-06    0.86E-07
   0     11    11.376    13.439    0.26E-04    0.75E-05    0.85E-07
   1     11    11.376     3.724    0.35E-05    0.81E-05    0.82E-07
   1     11    11.376    38.716    0.17E-03    0.48E-03    0.26E-05
   2     10    11.376     3.434    0.57E-04    0.14E-05    0.40E-06
 Optimization of the real space projectors (new method)

 maximal supplied QI-value         = 24.76
 optimisation between [QCUT,QGAM] = [ 11.39, 28.47] = [ 36.31,226.95] Ry 
 Optimized for a Real-space Cutoff    0.93 Angstroem

   l    n(q)    QCUT    max X(q) W(low)/X(q) W(high)/X(q)  e(spline) 
   0      8    11.387     4.192    0.42E-04    0.17E-04    0.17E-07
   0      8    11.387     8.473    0.27E-03    0.17E-03    0.11E-06
   1      7    11.387     2.474    0.76E-04    0.10E-03    0.15E-07
   1      7    11.387     3.912    0.34E-03    0.52E-03    0.97E-07
 Optimization of the real space projectors (new method)

 maximal supplied QI-value         = 19.84
 optimisation between [QCUT,QGAM] = [ 11.31, 28.57] = [ 35.82,228.61] Ry 
 Optimized for a Real-space Cutoff    1.08 Angstroem

   l    n(q)    QCUT    max X(q) W(low)/X(q) W(high)/X(q)  e(spline) 
   0      9    11.310     5.487    0.13E-04    0.62E-06    0.84E-08
   0      9    11.310    85.627    0.68E-04    0.52E-04    0.71E-07
   1      9    11.310     3.530    0.85E-05    0.12E-04    0.17E-07
   1      9    11.310    42.714    0.80E-04    0.47E-04    0.25E-06
PAW_PBE K_sv 06Sep2000                  :
 energy of atom  1       EATOM= -774.7423
 kinetic energy error for atom=    0.0017 (will be added to EATOM!!)
PAW_PBE O 08Apr2002                     :
 energy of atom  2       EATOM= -432.3788
 kinetic energy error for atom=    0.0224 (will be added to EATOM!!)
PAW_PBE S 17Jan2003                     :
 energy of atom  3       EATOM= -276.8230
 kinetic energy error for atom=    0.0020 (will be added to EATOM!!)
 
 
 POSCAR: K S O                                   
  positions in direct lattice
  No initial velocities read in
 exchange correlation table for  LEXCH =        8
   RHO(1)=    0.500       N(1)  =     2000
   RHO(2)=  100.500       N(2)  =     4000
 


--------------------------------------------------------------------------------------------------------


 ion  position               nearest neighbor table
   1  0.512  0.200  0.750-  21 2.74  19 2.78  12 2.78  14 2.84  17 2.84  23 2.85   4 3.80   4 3.80
                             5 3.81
   2  0.488  0.800  0.250-  22 2.74  16 2.78  15 2.78  13 2.84  18 2.84  20 2.85   7 3.80   7 3.80
                             6 3.81
   3  0.012  0.300  0.750-  23 2.74  14 2.78  17 2.78  19 2.84  12 2.84  21 2.85   6 3.80   6 3.80
                             7 3.81
   4  0.671  0.410  0.250-  24 2.78   1 3.80   1 3.80   8 3.81
   5  0.829  0.910  0.750-   9 2.78   8 3.80   8 3.80   1 3.81
   6  0.171  0.090  0.250-  10 2.78   3 3.80   3 3.80   2 3.81
   7  0.329  0.590  0.750-  11 2.78   2 3.80   2 3.80   3 3.81
   8  0.988  0.700  0.250-  20 2.74  13 2.78  18 2.78  16 2.84  15 2.84  22 2.85   5 3.80   5 3.80
                             4 3.81
   9  0.462  0.915  0.750-  26 1.49   5 2.78
  10  0.538  0.085  0.250-  27 1.49   6 2.78
  11  0.962  0.585  0.750-  28 1.49   7 2.78
  12  0.305  0.353  0.040-  25 1.50   1 2.78   3 2.84
  13  0.195  0.853  0.960-  26 1.50   8 2.78   2 2.84
  14  0.805  0.147  0.460-  27 1.50   3 2.78   1 2.84
  15  0.695  0.647  0.540-  28 1.50   2 2.78   8 2.84
  16  0.695  0.647  0.960-  28 1.50   2 2.78   8 2.84
  17  0.805  0.147  0.040-  27 1.50   3 2.78   1 2.84
  18  0.195  0.853  0.540-  26 1.50   8 2.78   2 2.84
  19  0.305  0.353  0.460-  25 1.50   1 2.78   3 2.84
  20  0.297  0.560  0.250-  25 1.50   8 2.74   2 2.85
  21  0.203  0.060  0.750-  26 1.50   1 2.74   3 2.85
  22  0.797  0.940  0.250-  27 1.50   2 2.74   8 2.85
  23  0.703  0.440  0.750-  28 1.50   3 2.74   1 2.85
  24  0.038  0.415  0.250-  25 1.49   4 2.78
  25  0.235  0.420  0.250-  24 1.49  12 1.50  19 1.50  20 1.50
  26  0.265  0.920  0.750-   9 1.49  18 1.50  13 1.50  21 1.50
  27  0.735  0.080  0.250-  10 1.49  17 1.50  14 1.50  22 1.50
  28  0.765  0.580  0.750-  11 1.49  15 1.50  16 1.50  23 1.50
 
  LATTYP: Found a simple orthorhombic cell.
 ALAT       =     5.8047700000
 B/A-ratio  =     1.3057578509
 C/A-ratio  =     1.7550597181
  
  Lattice vectors:
  
 A1 = (   0.0000000000,   0.0000000000,   5.8047700000)
 A2 = (  -7.5796240000,   0.0000000000,   0.0000000000)
 A3 = (   0.0000000000, -10.1877180000,   0.0000000000)


Analysis of symmetry for initial positions (statically):
=====================================================================
 Subroutine PRICEL returns:
 Original cell was already a primitive cell.
 

 Routine SETGRP: Setting up the symmetry group for a 
 simple orthorhombic supercell.


 Subroutine GETGRP returns: Found  8 space group operations
 (whereof  2 operations were pure point group operations)
 out of a pool of  8 trial point group operations.


The static configuration has the point symmetry S_2 .
 The point group associated with its full space group is D_2h.


Analysis of symmetry for dynamics (positions and initial velocities):
=====================================================================
 Subroutine PRICEL returns:
 Original cell was already a primitive cell.
 

 Routine SETGRP: Setting up the symmetry group for a 
 simple orthorhombic supercell.


 Subroutine GETGRP returns: Found  8 space group operations
 (whereof  2 operations were pure point group operations)
 out of a pool of  8 trial point group operations.


The dynamic configuration has the point symmetry S_2 .
 The point group associated with its full space group is D_2h.
 
 
 KPOINTS: KPOINTS                                 

Automatic generation of k-mesh.
Space group operators:
 irot       det(A)        alpha          n_x          n_y          n_z        tau_x        tau_y        tau_z
    1     1.000000     0.000001     1.000000     0.000000     0.000000     0.000000     0.000000     0.000000
    2    -1.000000     0.000001     1.000000     0.000000     0.000000     0.000000     0.000000     0.000000
    3     1.000000   180.000000     0.000000     1.000000     0.000000    -0.500002    -0.499999     0.000000
    4    -1.000000   180.000000     0.000000     1.000000     0.000000    -0.500000    -0.500000     0.000000
    5     1.000000   180.000000     1.000000     0.000000     0.000000    -0.500002    -0.500001     0.499999
    6    -1.000000   180.000000     1.000000     0.000000     0.000000    -0.500002    -0.500001     0.500001
    7     1.000000   180.000000     0.000000     0.000000     1.000000    -0.000001     0.000000     0.500001
    8    -1.000000   180.000000     0.000000     0.000000     1.000000     0.000000     0.000000     0.499999
 
 Subroutine IBZKPT returns following result:
 ===========================================
 
 Found     60 irreducible k-points:
 
 Following reciprocal coordinates:
            Coordinates               Weight
  0.000000  0.000000  0.000000      1.000000
  0.166667  0.000000  0.000000      2.000000
  0.333333  0.000000  0.000000      2.000000
  0.500000  0.000000  0.000000      1.000000
  0.000000  0.250000  0.000000      2.000000
  0.166667  0.250000  0.000000      4.000000
  0.333333  0.250000  0.000000      4.000000
  0.500000  0.250000  0.000000      2.000000
  0.000000  0.500000  0.000000      1.000000
  0.166667  0.500000  0.000000      2.000000
  0.333333  0.500000  0.000000      2.000000
  0.500000  0.500000  0.000000      1.000000
  0.000000  0.000000  0.125000      2.000000
  0.166667  0.000000  0.125000      4.000000
  0.333333  0.000000  0.125000      4.000000
  0.500000  0.000000  0.125000      2.000000
  0.000000  0.250000  0.125000      4.000000
  0.166667  0.250000  0.125000      8.000000
  0.333333  0.250000  0.125000      8.000000
  0.500000  0.250000  0.125000      4.000000
  0.000000  0.500000  0.125000      2.000000
  0.166667  0.500000  0.125000      4.000000
  0.333333  0.500000  0.125000      4.000000
  0.500000  0.500000  0.125000      2.000000
  0.000000  0.000000  0.250000      2.000000
  0.166667  0.000000  0.250000      4.000000
  0.333333  0.000000  0.250000      4.000000
  0.500000  0.000000  0.250000      2.000000
  0.000000  0.250000  0.250000      4.000000
  0.166667  0.250000  0.250000      8.000000
  0.333333  0.250000  0.250000      8.000000
  0.500000  0.250000  0.250000      4.000000
  0.000000  0.500000  0.250000      2.000000
  0.166667  0.500000  0.250000      4.000000
  0.333333  0.500000  0.250000      4.000000
  0.500000  0.500000  0.250000      2.000000
  0.000000  0.000000  0.375000      2.000000
  0.166667  0.000000  0.375000      4.000000
  0.333333  0.000000  0.375000      4.000000
  0.500000  0.000000  0.375000      2.000000
  0.000000  0.250000  0.375000      4.000000
  0.166667  0.250000  0.375000      8.000000
  0.333333  0.250000  0.375000      8.000000
  0.500000  0.250000  0.375000      4.000000
  0.000000  0.500000  0.375000      2.000000
  0.166667  0.500000  0.375000      4.000000
  0.333333  0.500000  0.375000      4.000000
  0.500000  0.500000  0.375000      2.000000
  0.000000  0.000000  0.500000      1.000000
  0.166667  0.000000  0.500000      2.000000
  0.333333  0.000000  0.500000      2.000000
  0.500000  0.000000  0.500000      1.000000
  0.000000  0.250000  0.500000      2.000000
  0.166667  0.250000  0.500000      4.000000
  0.333333  0.250000  0.500000      4.000000
  0.500000  0.250000  0.500000      2.000000
  0.000000  0.500000  0.500000      1.000000
  0.166667  0.500000  0.500000      2.000000
  0.333333  0.500000  0.500000      2.000000
  0.500000  0.500000  0.500000      1.000000
 
 Following cartesian coordinates:
            Coordinates               Weight
  0.000000  0.000000  0.000000      1.000000
  0.021989  0.000000  0.000000      2.000000
  0.043978  0.000000  0.000000      2.000000
  0.065966  0.000000  0.000000      1.000000
  0.000000  0.024539  0.000000      2.000000
  0.021989  0.024539  0.000000      4.000000
  0.043978  0.024539  0.000000      4.000000
  0.065966  0.024539  0.000000      2.000000
  0.000000  0.049079  0.000000      1.000000
  0.021989  0.049079  0.000000      2.000000
  0.043978  0.049079  0.000000      2.000000
  0.065966  0.049079  0.000000      1.000000
  0.000000  0.000000  0.021534      2.000000
  0.021989  0.000000  0.021534      4.000000
  0.043978  0.000000  0.021534      4.000000
  0.065966  0.000000  0.021534      2.000000
  0.000000  0.024539  0.021534      4.000000
  0.021989  0.024539  0.021534      8.000000
  0.043978  0.024539  0.021534      8.000000
  0.065966  0.024539  0.021534      4.000000
  0.000000  0.049079  0.021534      2.000000
  0.021989  0.049079  0.021534      4.000000
  0.043978  0.049079  0.021534      4.000000
  0.065966  0.049079  0.021534      2.000000
  0.000000  0.000000  0.043068      2.000000
  0.021989  0.000000  0.043068      4.000000
  0.043978  0.000000  0.043068      4.000000
  0.065966  0.000000  0.043068      2.000000
  0.000000  0.024539  0.043068      4.000000
  0.021989  0.024539  0.043068      8.000000
  0.043978  0.024539  0.043068      8.000000
  0.065966  0.024539  0.043068      4.000000
  0.000000  0.049079  0.043068      2.000000
  0.021989  0.049079  0.043068      4.000000
  0.043978  0.049079  0.043068      4.000000
  0.065966  0.049079  0.043068      2.000000
  0.000000  0.000000  0.064602      2.000000
  0.021989  0.000000  0.064602      4.000000
  0.043978  0.000000  0.064602      4.000000
  0.065966  0.000000  0.064602      2.000000
  0.000000  0.024539  0.064602      4.000000
  0.021989  0.024539  0.064602      8.000000
  0.043978  0.024539  0.064602      8.000000
  0.065966  0.024539  0.064602      4.000000
  0.000000  0.049079  0.064602      2.000000
  0.021989  0.049079  0.064602      4.000000
  0.043978  0.049079  0.064602      4.000000
  0.065966  0.049079  0.064602      2.000000
  0.000000  0.000000  0.086136      1.000000
  0.021989  0.000000  0.086136      2.000000
  0.043978  0.000000  0.086136      2.000000
  0.065966  0.000000  0.086136      1.000000
  0.000000  0.024539  0.086136      2.000000
  0.021989  0.024539  0.086136      4.000000
  0.043978  0.024539  0.086136      4.000000
  0.065966  0.024539  0.086136      2.000000
  0.000000  0.049079  0.086136      1.000000
  0.021989  0.049079  0.086136      2.000000
  0.043978  0.049079  0.086136      2.000000
  0.065966  0.049079  0.086136      1.000000
 


--------------------------------------------------------------------------------------------------------




 Dimension of arrays:
   k-points           NKPTS =     60   k-points in BZ     NKDIM =     60   number of bands    NBANDS=    116
   number of dos      NEDOS =    301   number of ions     NIONS =     28
   non local maximal  LDIM  =      5   non local SUM 2l+1 LMDIM =     13
   total plane-waves  NPLWV = 188160
   max r-space proj   IRMAX =   3814   max aug-charges    IRDMAX=   8014
   dimension x,y,z NGX =    56 NGY =   80 NGZ =   42
   dimension x,y,z NGXF=    84 NGYF=  112 NGZF=   64
   support grid    NGXF=    84 NGYF=  112 NGZF=   64
   ions per type =               8  16   4
 NGX,Y,Z   is equivalent  to a cutoff of  12.28, 13.05, 12.03 a.u.
 NGXF,Y,Z  is equivalent  to a cutoff of  18.42, 18.28, 18.33 a.u.


 I would recommend the setting:
   dimension x,y,z NGX =    55 NGY =   74 NGZ =   42
 SYSTEM =  unknown system                          
 POSCAR =  K S O                                   

 Startparameter for this run:
   NWRITE =      2    write-flag & timer
   PREC   = high      normal or accurate (medium, high low for compatibility)
   ISTART =      0    job   : 0-new  1-cont  2-samecut
   ICHARG =      1    charge: 1-file 2-atom 10-const
   ISPIN  =      1    spin polarized calculation?
   LNONCOLLINEAR =      F non collinear calculations
   LSORBIT =      F    spin-orbit coupling
   INIWAV =      1    electr: 0-lowe 1-rand  2-diag
   LASPH  =      F    aspherical Exc in radial PAW
   METAGGA=      F    non-selfconsistent MetaGGA calc.

 Electronic Relaxation 1
   ENCUT  =  500.0 eV  36.75 Ry    6.06 a.u.  13.82 18.57 10.58*2*pi/ulx,y,z
   ENINI  =  500.0     initial cutoff
   ENAUG  =  605.4 eV  augmentation charge cutoff
   NELM   =     60;   NELMIN=  2; NELMDL= -5     # of ELM steps 
   EDIFF  = 0.1E-03   stopping-criterion for ELM
   LREAL  =      T    real-space projection
   NLSPLINE    = F    spline interpolate recip. space projectors
   LCOMPAT=      F    compatible to vasp.4.4
   GGA_COMPAT  = T    GGA compatible to vasp.4.4-vasp.4.6
   LMAXPAW     = -100 max onsite density
   LMAXMIX     =    2 max onsite mixed and CHGCAR
   VOSKOWN=      0    Vosko Wilk Nusair interpolation
   ROPT   =   -0.00040  -0.00040  -0.00040
 Ionic relaxation
   EDIFFG = 0.1E-02   stopping-criterion for IOM
   NSW    =    100    number of steps for IOM
   NBLOCK =      1;   KBLOCK =    100    inner block; outer block 
   IBRION =      2    ionic relax: 0-MD 1-quasi-New 2-CG
   NFREE  =      1    steps in history (QN), initial steepest desc. (CG)
   ISIF   =      3    stress and relaxation
   IWAVPR =     11    prediction:  0-non 1-charg 2-wave 3-comb
   ISYM   =      1    0-nonsym 1-usesym 2-fastsym
   LCORR  =      T    Harris-Foulkes like correction to forces

   POTIM  = 0.5000    time-step for ionic-motion
   TEIN   =    0.0    initial temperature
   TEBEG  =    0.0;   TEEND  =   0.0 temperature during run
   SMASS  =  -3.00    Nose mass-parameter (am)
   estimated Nose-frequenzy (Omega)   =  0.10E-29 period in steps =****** mass=  -0.131E-26a.u.
   SCALEE = 1.0000    scale energy and forces
   NPACO  =    256;   APACO  = 16.0  distance and # of slots for P.C.
   PSTRESS=    0.0 pullay stress

  Mass of Ions in am
   POMASS =  39.10 16.00 32.07
  Ionic Valenz
   ZVAL   =   9.00  6.00  6.00
  Atomic Wigner-Seitz radii
   RWIGS  =  -1.00 -1.00 -1.00
  virtual crystal weights 
   VCA    =   1.00  1.00  1.00
   NELECT =     192.0000    total number of electrons
   NUPDOWN=      -1.0000    fix difference up-down

 DOS related values:
   EMIN   =  10.00;   EMAX   =-10.00  energy-range for DOS
   EFERMI =   0.00
   ISMEAR =     0;   SIGMA  =   0.20  broadening in eV -4-tet -1-fermi 0-gaus

 Electronic relaxation 2 (details)
   IALGO  =     68    algorithm
   LDIAG  =      T    sub-space diagonalisation (order eigenvalues)
   LSUBROT=      T    optimize rotation matrix (better conditioning)
   TURBO    =      0    0=normal 1=particle mesh
   IRESTART =      0    0=no restart 2=restart with 2 vectors
   NREBOOT  =      0    no. of reboots
   NMIN     =      0    reboot dimension
   EREF     =   0.00    reference energy to select bands
   IMIX   =      4    mixing-type and parameters
     AMIX     =   0.40;   BMIX     =  1.00
     AMIX_MAG =   1.60;   BMIX_MAG =  1.00
     AMIN     =   0.10
     WC   =   100.;   INIMIX=   1;  MIXPRE=   1;  MAXMIX= -45

 Intra band minimization:
   WEIMIN = 0.0010     energy-eigenvalue tresh-hold
   EBREAK =  0.22E-06  absolut break condition
   DEPER  =   0.30     relativ break condition  

   TIME   =   0.40     timestep for ELM

  volume/ion in A,a.u.               =      16.01       108.03
  Fermi-wavevector in a.u.,A,eV,Ry     =   1.234067  2.332048 20.720600  1.522921
  Thomas-Fermi vector in A             =   2.368772
 
 Write flags
   LWAVE  =      F    write WAVECAR
   LCHARG =      T    write CHGCAR
   LVTOT  =      F    write LOCPOT, total local potential
   LVHAR  =      T    write LOCPOT, Hartree potential only
   LELF   =      F    write electronic localiz. function (ELF)
   LORBIT =     11    0 simple, 1 ext, 2 COOP (PROOUT)


 Dipole corrections
   LMONO  =      F    monopole corrections only (constant potential shift)
   LDIPOL =      F    correct potential (dipole corrections)
   IDIPOL =      0    1-x, 2-y, 3-z, 4-all directions 
   EPSILON=  1.0000000 bulk dielectric constant

 Exchange correlation treatment:
   GGA     =    --    GGA type
   LEXCH   =     8    internal setting for exchange type
   VOSKOWN=      0    Vosko Wilk Nusair interpolation
   LHFCALC =     F    Hartree Fock is set to
   LHFONE  =     F    Hartree Fock one center treatment
   AEXX    =    0.0000 exact exchange contribution

 Linear response parameters
   LEPSILON=     F    determine dielectric tensor
   LRPA    =     F    only Hartree local field effects (RPA)
   LNABLA  =     F    use nabla operator in PAW spheres
   LVEL    =     F    velocity operator in full k-point grid
   LINTERFAST=   F  fast interpolation
   KINTER  =     0    interpolate to denser k-point grid
   CSHIFT  =0.1000    complex shift for real part using Kramers Kronig
   OMEGAMAX=  -1.0    maximum frequency
   DEG_THRESHOLD= 0.2000000E-02 threshold for treating states as degnerate
   RTIME   =    0.100 relaxation time in fs

 Orbital magnetization related:
   ORBITALMAG=     F  switch on orbital magnetization
   LCHIMAG   =     F  perturbation theory with respect to B field
   DQ        =  0.001000  dq finite difference perturbation B field



--------------------------------------------------------------------------------------------------------


 conjugate gradient relaxation of ions
 charge density and potential will be updated during run
 non-spin polarized calculation
 RMM-DIIS sequential band-by-band and
  variant of blocked Davidson during initial phase
 perform sub-space diagonalisation
    before iterative eigenvector-optimisation
 modified Broyden-mixing scheme, WC =      100.0
 initial mixing is a Kerker type mixing with AMIX =  0.4000 and BMIX =      1.0000
 Hartree-type preconditioning will be used
 using additional bands           20
 real space projection scheme for non local part
 use partial core corrections
 calculate Harris-corrections to forces 
   (improved forces if not selfconsistent)
 use gradient corrections 
 use of overlap-Matrix (Vanderbilt PP)
 Gauss-broadening in eV      SIGMA  =   0.20


--------------------------------------------------------------------------------------------------------


  energy-cutoff  :      500.00
  volume of cell :      448.24
      direct lattice vectors                 reciprocal lattice vectors
     7.579624000  0.000000000  0.000000000     0.131932666  0.000000000  0.000000000
     0.000000000 10.187718000  0.000000000     0.000000000  0.098157409  0.000000000
     0.000000000  0.000000000  5.804770000     0.000000000  0.000000000  0.172272114

  length of vectors
     7.579624000 10.187718000  5.804770000     0.131932666  0.098157409  0.172272114


 
 k-points in units of 2pi/SCALE and weight: KPOINTS                                 
   0.00000000  0.00000000  0.00000000       0.005
   0.02198878  0.00000000  0.00000000       0.010
   0.04397756  0.00000000  0.00000000       0.010
   0.06596633  0.00000000  0.00000000       0.005
   0.00000000  0.02453935  0.00000000       0.010
   0.02198878  0.02453935  0.00000000       0.021
   0.04397756  0.02453935  0.00000000       0.021
   0.06596633  0.02453935  0.00000000       0.010
   0.00000000  0.04907870  0.00000000       0.005
   0.02198878  0.04907870  0.00000000       0.010
   0.04397756  0.04907870  0.00000000       0.010
   0.06596633  0.04907870  0.00000000       0.005
   0.00000000  0.00000000  0.02153401       0.010
   0.02198878  0.00000000  0.02153401       0.021
   0.04397756  0.00000000  0.02153401       0.021
   0.06596633  0.00000000  0.02153401       0.010
   0.00000000  0.02453935  0.02153401       0.021
   0.02198878  0.02453935  0.02153401       0.042
   0.04397756  0.02453935  0.02153401       0.042
   0.06596633  0.02453935  0.02153401       0.021
   0.00000000  0.04907870  0.02153401       0.010
   0.02198878  0.04907870  0.02153401       0.021
   0.04397756  0.04907870  0.02153401       0.021
   0.06596633  0.04907870  0.02153401       0.010
   0.00000000  0.00000000  0.04306803       0.010
   0.02198878  0.00000000  0.04306803       0.021
   0.04397756  0.00000000  0.04306803       0.021
   0.06596633  0.00000000  0.04306803       0.010
   0.00000000  0.02453935  0.04306803       0.021
   0.02198878  0.02453935  0.04306803       0.042
   0.04397756  0.02453935  0.04306803       0.042
   0.06596633  0.02453935  0.04306803       0.021
   0.00000000  0.04907870  0.04306803       0.010
   0.02198878  0.04907870  0.04306803       0.021
   0.04397756  0.04907870  0.04306803       0.021
   0.06596633  0.04907870  0.04306803       0.010
   0.00000000  0.00000000  0.06460204       0.010
   0.02198878  0.00000000  0.06460204       0.021
   0.04397756  0.00000000  0.06460204       0.021
   0.06596633  0.00000000  0.06460204       0.010
   0.00000000  0.02453935  0.06460204       0.021
   0.02198878  0.02453935  0.06460204       0.042
   0.04397756  0.02453935  0.06460204       0.042
   0.06596633  0.02453935  0.06460204       0.021
   0.00000000  0.04907870  0.06460204       0.010
   0.02198878  0.04907870  0.06460204       0.021
   0.04397756  0.04907870  0.06460204       0.021
   0.06596633  0.04907870  0.06460204       0.010
   0.00000000  0.00000000  0.08613606       0.005
   0.02198878  0.00000000  0.08613606       0.010
   0.04397756  0.00000000  0.08613606       0.010
   0.06596633  0.00000000  0.08613606       0.005
   0.00000000  0.02453935  0.08613606       0.010
   0.02198878  0.02453935  0.08613606       0.021
   0.04397756  0.02453935  0.08613606       0.021
   0.06596633  0.02453935  0.08613606       0.010
   0.00000000  0.04907870  0.08613606       0.005
   0.02198878  0.04907870  0.08613606       0.010
   0.04397756  0.04907870  0.08613606       0.010
   0.06596633  0.04907870  0.08613606       0.005
 
 k-points in reciprocal lattice and weights: KPOINTS                                 
   0.00000000  0.00000000  0.00000000       0.005
   0.16666667  0.00000000  0.00000000       0.010
   0.33333333  0.00000000  0.00000000       0.010
   0.50000000  0.00000000  0.00000000       0.005
   0.00000000  0.25000000  0.00000000       0.010
   0.16666667  0.25000000  0.00000000       0.021
   0.33333333  0.25000000  0.00000000       0.021
   0.50000000  0.25000000  0.00000000       0.010
   0.00000000  0.50000000  0.00000000       0.005
   0.16666667  0.50000000  0.00000000       0.010
   0.33333333  0.50000000  0.00000000       0.010
   0.50000000  0.50000000  0.00000000       0.005
   0.00000000  0.00000000  0.12500000       0.010
   0.16666667  0.00000000  0.12500000       0.021
   0.33333333  0.00000000  0.12500000       0.021
   0.50000000  0.00000000  0.12500000       0.010
   0.00000000  0.25000000  0.12500000       0.021
   0.16666667  0.25000000  0.12500000       0.042
   0.33333333  0.25000000  0.12500000       0.042
   0.50000000  0.25000000  0.12500000       0.021
   0.00000000  0.50000000  0.12500000       0.010
   0.16666667  0.50000000  0.12500000       0.021
   0.33333333  0.50000000  0.12500000       0.021
   0.50000000  0.50000000  0.12500000       0.010
   0.00000000  0.00000000  0.25000000       0.010
   0.16666667  0.00000000  0.25000000       0.021
   0.33333333  0.00000000  0.25000000       0.021
   0.50000000  0.00000000  0.25000000       0.010
   0.00000000  0.25000000  0.25000000       0.021
   0.16666667  0.25000000  0.25000000       0.042
   0.33333333  0.25000000  0.25000000       0.042
   0.50000000  0.25000000  0.25000000       0.021
   0.00000000  0.50000000  0.25000000       0.010
   0.16666667  0.50000000  0.25000000       0.021
   0.33333333  0.50000000  0.25000000       0.021
   0.50000000  0.50000000  0.25000000       0.010
   0.00000000  0.00000000  0.37500000       0.010
   0.16666667  0.00000000  0.37500000       0.021
   0.33333333  0.00000000  0.37500000       0.021
   0.50000000  0.00000000  0.37500000       0.010
   0.00000000  0.25000000  0.37500000       0.021
   0.16666667  0.25000000  0.37500000       0.042
   0.33333333  0.25000000  0.37500000       0.042
   0.50000000  0.25000000  0.37500000       0.021
   0.00000000  0.50000000  0.37500000       0.010
   0.16666667  0.50000000  0.37500000       0.021
   0.33333333  0.50000000  0.37500000       0.021
   0.50000000  0.50000000  0.37500000       0.010
   0.00000000  0.00000000  0.50000000       0.005
   0.16666667  0.00000000  0.50000000       0.010
   0.33333333  0.00000000  0.50000000       0.010
   0.50000000  0.00000000  0.50000000       0.005
   0.00000000  0.25000000  0.50000000       0.010
   0.16666667  0.25000000  0.50000000       0.021
   0.33333333  0.25000000  0.50000000       0.021
   0.50000000  0.25000000  0.50000000       0.010
   0.00000000  0.50000000  0.50000000       0.005
   0.16666667  0.50000000  0.50000000       0.010
   0.33333333  0.50000000  0.50000000       0.010
   0.50000000  0.50000000  0.50000000       0.005
 
 position of ions in fractional coordinates (direct lattice) 
   0.51180109  0.19970518  0.74999869
   0.48819966  0.80029503  0.24999956
   0.01180138  0.30029395  0.74999869
   0.67135649  0.40966682  0.24999956
   0.82864134  0.90966594  0.74999869
   0.17135810  0.09033328  0.24999956
   0.32864294  0.59033437  0.74999869
   0.98819938  0.69970626  0.24999956
   0.46153607  0.91462486  0.74999869
   0.53846468  0.08537535  0.24999956
   0.96153578  0.58537546  0.74999869
   0.30474861  0.35300742  0.03954679
   0.19525110  0.85300851  0.96045319
   0.80474701  0.14699170  0.46045406
   0.69525214  0.64699279  0.53954764
   0.69525214  0.64699279  0.96045319
   0.80474701  0.14699170  0.03954679
   0.19525110  0.85300851  0.53954764
   0.30474861  0.35300742  0.46045406
   0.29706881  0.55972987  0.24999956
   0.20293090  0.05973075  0.74999869
   0.79706985  0.94026946  0.24999956
   0.70293062  0.44026936  0.74999869
   0.03846365  0.41462475  0.24999956
   0.23465807  0.42005777  0.24999956
   0.26534165  0.92005787  0.74999869
   0.73465647  0.07994136  0.24999956
   0.76534136  0.57994244  0.74999869
 
 position of ions in cartesian coordinates  (Angst):
   3.87925985  2.03454003  4.35356990
   3.70036985  8.15318010  1.45118997
   0.08945000  3.05931004  4.35356990
   5.08862980  4.17357005  1.45118997
   6.28078975  9.26742012  4.35356990
   1.29882995  0.92029001  1.45118997
   2.49098990  6.01416008  4.35356990
   7.49017970  7.12841009  1.45118997
   3.49826986  9.31794012  4.35356990
   4.08135984  0.86978001  1.45118997
   7.28807971  5.96364007  4.35356990
   2.30987991  3.59634004  0.22955999
   1.47992994  8.69021011  5.57520987
   6.09967976  1.49751002  2.67282994
   5.26974979  6.59138008  3.13194993
   5.26974979  6.59138008  5.57520987
   6.09967976  1.49751002  0.22955999
   1.47992994  8.69021011  3.13194993
   2.30987991  3.59634004  2.67282994
   2.25166991  5.70237007  1.45118997
   1.53813994  0.60852001  4.35356990
   6.04148976  9.57920012  1.45118997
   5.32794979  4.48534006  4.35356990
   0.29153999  4.22408005  1.45118997
   1.77861993  4.27943005  1.45118997
   2.01118992  9.37329012  4.35356990
   5.56841978  0.81442001  1.45118997
   5.80099977  5.90829007  4.35356990
 


--------------------------------------------------------------------------------------------------------


 k-point  1 :   0.0000 0.0000 0.0000  plane waves:   11419
 k-point  2 :   0.1667 0.0000 0.0000  plane waves:   11407
 k-point  3 :   0.3333 0.0000 0.0000  plane waves:   11402
 k-point  4 :   0.5000 0.0000 0.0000  plane waves:   11368
 k-point  5 :   0.0000 0.2500 0.0000  plane waves:   11397
 k-point  6 :   0.1667 0.2500 0.0000  plane waves:   11406
 k-point  7 :   0.3333 0.2500 0.0000  plane waves:   11376
 k-point  8 :   0.5000 0.2500 0.0000  plane waves:   11366
 k-point  9 :   0.0000 0.5000 0.0000  plane waves:   11378
 k-point 10 :   0.1667 0.5000 0.0000  plane waves:   11372
 k-point 11 :   0.3333 0.5000 0.0000  plane waves:   11378
 k-point 12 :   0.5000 0.5000 0.0000  plane waves:   11440
 k-point 13 :   0.0000 0.0000 0.1250  plane waves:   11425
 k-point 14 :   0.1667 0.0000 0.1250  plane waves:   11397
 k-point 15 :   0.3333 0.0000 0.1250  plane waves:   11401
 k-point 16 :   0.5000 0.0000 0.1250  plane waves:   11386
 k-point 17 :   0.0000 0.2500 0.1250  plane waves:   11378
 k-point 18 :   0.1667 0.2500 0.1250  plane waves:   11392
 k-point 19 :   0.3333 0.2500 0.1250  plane waves:   11389
 k-point 20 :   0.5000 0.2500 0.1250  plane waves:   11384
 k-point 21 :   0.0000 0.5000 0.1250  plane waves:   11390
 k-point 22 :   0.1667 0.5000 0.1250  plane waves:   11380
 k-point 23 :   0.3333 0.5000 0.1250  plane waves:   11378
 k-point 24 :   0.5000 0.5000 0.1250  plane waves:   11376
 k-point 25 :   0.0000 0.0000 0.2500  plane waves:   11375
 k-point 26 :   0.1667 0.0000 0.2500  plane waves:   11370
 k-point 27 :   0.3333 0.0000 0.2500  plane waves:   11371
 k-point 28 :   0.5000 0.0000 0.2500  plane waves:   11406
 k-point 29 :   0.0000 0.2500 0.2500  plane waves:   11368
 k-point 30 :   0.1667 0.2500 0.2500  plane waves:   11374
 k-point 31 :   0.3333 0.2500 0.2500  plane waves:   11392
 k-point 32 :   0.5000 0.2500 0.2500  plane waves:   11386
 k-point 33 :   0.0000 0.5000 0.2500  plane waves:   11388
 k-point 34 :   0.1667 0.5000 0.2500  plane waves:   11396
 k-point 35 :   0.3333 0.5000 0.2500  plane waves:   11352
 k-point 36 :   0.5000 0.5000 0.2500  plane waves:   11376
 k-point 37 :   0.0000 0.0000 0.3750  plane waves:   11363
 k-point 38 :   0.1667 0.0000 0.3750  plane waves:   11345
 k-point 39 :   0.3333 0.0000 0.3750  plane waves:   11368
 k-point 40 :   0.5000 0.0000 0.3750  plane waves:   11372
 k-point 41 :   0.0000 0.2500 0.3750  plane waves:   11356
 k-point 42 :   0.1667 0.2500 0.3750  plane waves:   11363
 k-point 43 :   0.3333 0.2500 0.3750  plane waves:   11390
 k-point 44 :   0.5000 0.2500 0.3750  plane waves:   11386
 k-point 45 :   0.0000 0.5000 0.3750  plane waves:   11358
 k-point 46 :   0.1667 0.5000 0.3750  plane waves:   11388
 k-point 47 :   0.3333 0.5000 0.3750  plane waves:   11362
 k-point 48 :   0.5000 0.5000 0.3750  plane waves:   11352
 k-point 49 :   0.0000 0.0000 0.5000  plane waves:   11346
 k-point 50 :   0.1667 0.0000 0.5000  plane waves:   11368
 k-point 51 :   0.3333 0.0000 0.5000  plane waves:   11376
 k-point 52 :   0.5000 0.0000 0.5000  plane waves:   11392
 k-point 53 :   0.0000 0.2500 0.5000  plane waves:   11366
 k-point 54 :   0.1667 0.2500 0.5000  plane waves:   11372
 k-point 55 :   0.3333 0.2500 0.5000  plane waves:   11374
 k-point 56 :   0.5000 0.2500 0.5000  plane waves:   11388
 k-point 57 :   0.0000 0.5000 0.5000  plane waves:   11364
 k-point 58 :   0.1667 0.5000 0.5000  plane waves:   11364
 k-point 59 :   0.3333 0.5000 0.5000  plane waves:   11384
 k-point 60 :   0.5000 0.5000 0.5000  plane waves:   11360

 maximum and minimum number of plane-waves per node :      2892     2808

 maximum number of plane-waves:     11440
 maximum index in each direction: 
   IXMAX=   13   IYMAX=   18   IZMAX=   10
   IXMIN=  -14   IYMIN=  -19   IZMIN=  -11

 NGX is ok and might be reduce to  56
 NGY is ok and might be reduce to  76
 WARNING: aliasing errors must be expected set NGZ to  44 to avoid them
 aliasing errors are usually negligible using standard VASP settings
 and one can safely disregard these warnings

 real space projection operators:
  total allocation   :       4868.38 KBytes
  max/ min on nodes  :       1219.12       1215.47


 parallel 3D FFT for wavefunctions:
    minimum data exchange during FFTs selected (reduces bandwidth)
 parallel 3D FFT for charge:
    minimum data exchange during FFTs selected (reduces bandwidth)


 total amount of memory used by VASP on root node   206930. kBytes
========================================================================

   base      :      30000. kBytes
   nonlr-proj:       3297. kBytes
   fftplans  :       4262. kBytes
   grid      :       7064. kBytes
   one-center:         56. kBytes
   wavefun   :     162251. kBytes
 
 Broyden mixing: mesh for mixing (old mesh)
   NGX = 27   NGY = 37   NGZ = 21
  (NGX  = 84   NGY  =112   NGZ  = 64)
  gives a total of  20979 points

 initial charge density was supplied:
 charge density of overlapping atoms calculated
 number of electron     192.0000000 magnetization 
 keeping initial charge density in first step


--------------------------------------------------------------------------------------------------------


 Maximum index for non-local projection operator          926
 Maximum index for augmentation-charges         1206 (set IRDMAX)


--------------------------------------------------------------------------------------------------------


 First call to EWALD:  gamma=   0.232
 Maximum number of real-space cells 3x 2x 3
 Maximum number of reciprocal cells 3x 3x 2

 FEWALD executed in parallel
    FEWALD:  cpu time    0.00: real time    0.00


----------------------------------------- Iteration    1(   1)  ---------------------------------------


    POTLOK:  cpu time    0.13: real time    0.13
    SETDIJ:  cpu time    0.02: real time    0.02
     EDDAV:  cpu time  100.53: real time  100.61
       DOS:  cpu time    0.03: real time    0.03
    --------------------------------------------
      LOOP:  cpu time  100.70: real time  100.79

 eigenvalue-minimisations  : 13936
 total energy-change (2. order) : 0.1679642E+04  (-0.9734473E+04)
 number of electron     192.0000000 magnetization 
 augmentation part      192.0000000 magnetization 

 Free energy of the ion-electron system (eV)
  ---------------------------------------------------
  alpha Z        PSCENC =       674.26796327
  Ewald energy   TEWEN  =     -9741.29843335
  -1/2 Hartree   DENC   =     -3999.80035785
  -exchange  EXHF       =         0.00000000
  -V(xc)+E(xc)   XCENC  =       786.56264088
  PAW double counting   =      8394.57659688    -8371.10437944
  entropy T*S    EENTRO =        -0.11559135
  eigenvalues    EBANDS =      -286.35821984
  atomic energy  EATOM  =     14222.91173270
  ---------------------------------------------------
  free energy    TOTEN  =      1679.64195190 eV

  energy without entropy =     1679.75754326  energy(sigma->0) =     1679.69974758


--------------------------------------------------------------------------------------------------------




----------------------------------------- Iteration    1(   2)  ---------------------------------------


     EDDAV:  cpu time  124.58: real time  124.74
       DOS:  cpu time    0.02: real time    0.02
    --------------------------------------------
      LOOP:  cpu time  124.60: real time  124.76

 eigenvalue-minimisations  : 16888
 total energy-change (2. order) :-0.1715719E+04  (-0.1671007E+04)
 number of electron     192.0000000 magnetization 
 augmentation part      192.0000000 magnetization 

 Free energy of the ion-electron system (eV)
  ---------------------------------------------------
  alpha Z        PSCENC =       674.26796327
  Ewald energy   TEWEN  =     -9741.29843335
  -1/2 Hartree   DENC   =     -3999.80035785
  -exchange  EXHF       =         0.00000000
  -V(xc)+E(xc)   XCENC  =       786.56264088
  PAW double counting   =      8394.57659688    -8371.10437944
  entropy T*S    EENTRO =         0.00000000
  eigenvalues    EBANDS =     -2002.19263021
  atomic energy  EATOM  =     14222.91173270
  ---------------------------------------------------
  free energy    TOTEN  =       -36.07686711 eV

  energy without entropy =      -36.07686711  energy(sigma->0) =      -36.07686711


--------------------------------------------------------------------------------------------------------




----------------------------------------- Iteration    1(   3)  ---------------------------------------


     EDDAV:  cpu time  124.42: real time  124.85
       DOS:  cpu time    0.02: real time    0.02
    --------------------------------------------
      LOOP:  cpu time  124.44: real time  124.88

 eigenvalue-minimisations  : 17048
 total energy-change (2. order) :-0.1372855E+03  (-0.1366741E+03)
 number of electron     192.0000000 magnetization 
 augmentation part      192.0000000 magnetization 

 Free energy of the ion-electron system (eV)
  ---------------------------------------------------
  alpha Z        PSCENC =       674.26796327
  Ewald energy   TEWEN  =     -9741.29843335
  -1/2 Hartree   DENC   =     -3999.80035785
  -exchange  EXHF       =         0.00000000
  -V(xc)+E(xc)   XCENC  =       786.56264088
  PAW double counting   =      8394.57659688    -8371.10437944
  entropy T*S    EENTRO =         0.00000000
  eigenvalues    EBANDS =     -2139.47810375
  atomic energy  EATOM  =     14222.91173270
  ---------------------------------------------------
  free energy    TOTEN  =      -173.36234065 eV

  energy without entropy =     -173.36234065  energy(sigma->0) =     -173.36234065


--------------------------------------------------------------------------------------------------------




----------------------------------------- Iteration    1(   4)  ---------------------------------------


     EDDAV:  cpu time  139.21: real time  139.24
       DOS:  cpu time    0.02: real time    0.02
    --------------------------------------------
      LOOP:  cpu time  139.23: real time  139.27

 eigenvalue-minimisations  : 21304
 total energy-change (2. order) :-0.6868634E+01  (-0.6853695E+01)
 number of electron     192.0000000 magnetization 
 augmentation part      192.0000000 magnetization 

 Free energy of the ion-electron system (eV)
  ---------------------------------------------------
  alpha Z        PSCENC =       674.26796327
  Ewald energy   TEWEN  =     -9741.29843335
  -1/2 Hartree   DENC   =     -3999.80035785
  -exchange  EXHF       =         0.00000000
  -V(xc)+E(xc)   XCENC  =       786.56264088
  PAW double counting   =      8394.57659688    -8371.10437944
  entropy T*S    EENTRO =         0.00000000
  eigenvalues    EBANDS =     -2146.34673753
  atomic energy  EATOM  =     14222.91173270
  ---------------------------------------------------
  free energy    TOTEN  =      -180.23097443 eV

  energy without entropy =     -180.23097443  energy(sigma->0) =     -180.23097443


--------------------------------------------------------------------------------------------------------




----------------------------------------- Iteration    1(   5)  ---------------------------------------


     EDDAV:  cpu time  145.84: real time  145.99
       DOS:  cpu time    0.02: real time    0.02
    CHARGE:  cpu time    4.84: real time    4.84
    MIXING:  cpu time    0.00: real time    0.00
    --------------------------------------------
      LOOP:  cpu time  150.71: real time  150.87

 eigenvalue-minimisations  : 21768
 total energy-change (2. order) :-0.3390399E+00  (-0.3389298E+00)
 number of electron     192.0000317 magnetization 
 augmentation part       21.9852618 magnetization 

 Broyden mixing:
  rms(total) = 0.29167E+01    rms(broyden)= 0.29144E+01
  rms(prec ) = 0.38324E+01
  weight for this iteration     100.00

 Free energy of the ion-electron system (eV)
  ---------------------------------------------------
  alpha Z        PSCENC =       674.26796327
  Ewald energy   TEWEN  =     -9741.29843335
  -1/2 Hartree   DENC   =     -3999.80035785
  -exchange  EXHF       =         0.00000000
  -V(xc)+E(xc)   XCENC  =       786.56264088
  PAW double counting   =      8394.57659688    -8371.10437944
  entropy T*S    EENTRO =         0.00000000
  eigenvalues    EBANDS =     -2146.68577743
  atomic energy  EATOM  =     14222.91173270
  ---------------------------------------------------
  free energy    TOTEN  =      -180.57001433 eV

  energy without entropy =     -180.57001433  energy(sigma->0) =     -180.57001433


--------------------------------------------------------------------------------------------------------




----------------------------------------- Iteration    1(   6)  ---------------------------------------


    POTLOK:  cpu time    0.63: real time    0.63
    SETDIJ:  cpu time    0.15: real time    0.15
    EDDIAG:  cpu time   17.00: real time   17.00
  RMM-DIIS:  cpu time   70.63: real time   70.64
    ORTHCH:  cpu time    2.42: real time    2.42
       DOS:  cpu time    0.02: real time    0.02
    CHARGE:  cpu time    4.83: real time    4.83
    MIXING:  cpu time    0.00: real time    0.00
    --------------------------------------------
      LOOP:  cpu time   95.68: real time   95.70

 eigenvalue-minimisations  : 14128
 total energy-change (2. order) : 0.2321774E+02  (-0.1123803E+02)
 number of electron     192.0000278 magnetization 
 augmentation part       19.6259697 magnetization 

 Broyden mixing:
  rms(total) = 0.83334E+00    rms(broyden)= 0.83221E+00
  rms(prec ) = 0.96568E+00
  weight for this iteration     100.00

 eigenvalues of (default mixing * dielectric matrix)
  average eigenvalue GAMMA=   0.9771
  0.9771

 Free energy of the ion-electron system (eV)
  ---------------------------------------------------
  alpha Z        PSCENC =       674.26796327
  Ewald energy   TEWEN  =     -9741.29843335
  -1/2 Hartree   DENC   =     -4196.53079491
  -exchange  EXHF       =         0.00000000
  -V(xc)+E(xc)   XCENC  =       801.82335940
  PAW double counting   =      9059.96055147    -9046.48613966
  entropy T*S    EENTRO =         0.00000000
  eigenvalues    EBANDS =     -1932.00051335
  atomic energy  EATOM  =     14222.91173270
  ---------------------------------------------------
  free energy    TOTEN  =      -157.35227442 eV

  energy without entropy =     -157.35227442  energy(sigma->0) =     -157.35227442


--------------------------------------------------------------------------------------------------------




----------------------------------------- Iteration    1(   7)  ---------------------------------------


    POTLOK:  cpu time    0.12: real time    0.12
    SETDIJ:  cpu time    0.02: real time    0.02
    EDDIAG:  cpu time   17.03: real time   17.05
  RMM-DIIS:  cpu time   73.97: real time   74.05
    ORTHCH:  cpu time    2.36: real time    2.36
       DOS:  cpu time    0.02: real time    0.02
    CHARGE:  cpu time    4.85: real time    4.87
    MIXING:  cpu time    0.00: real time    0.01
    --------------------------------------------
      LOOP:  cpu time   98.37: real time   98.50

 eigenvalue-minimisations  : 15160
 total energy-change (2. order) :-0.8855387E-01  (-0.5089822E+00)
 number of electron     192.0000273 magnetization 
 augmentation part       19.2514597 magnetization 

 Broyden mixing:
  rms(total) = 0.56739E+00    rms(broyden)= 0.56724E+00
  rms(prec ) = 0.64490E+00
  weight for this iteration     100.00

 eigenvalues of (default mixing * dielectric matrix)
  average eigenvalue GAMMA=   1.6790
  1.1638  2.1941

 Free energy of the ion-electron system (eV)
  ---------------------------------------------------
  alpha Z        PSCENC =       674.26796327
  Ewald energy   TEWEN  =     -9741.29843335
  -1/2 Hartree   DENC   =     -4213.67070361
  -exchange  EXHF       =         0.00000000
  -V(xc)+E(xc)   XCENC  =       803.14145122
  PAW double counting   =      9233.93453545    -9222.82593583
  entropy T*S    EENTRO =         0.00000000
  eigenvalues    EBANDS =     -1913.90143814
  atomic energy  EATOM  =     14222.91173270
  ---------------------------------------------------
  free energy    TOTEN  =      -157.44082828 eV

  energy without entropy =     -157.44082828  energy(sigma->0) =     -157.44082828


--------------------------------------------------------------------------------------------------------




----------------------------------------- Iteration    1(   8)  ---------------------------------------


    POTLOK:  cpu time    0.30: real time    0.56
    SETDIJ:  cpu time    0.02: real time    0.02
    EDDIAG:  cpu time   17.98: real time   17.98
  RMM-DIIS:  cpu time   69.08: real time   69.09
    ORTHCH:  cpu time    2.42: real time    2.42
       DOS:  cpu time    0.02: real time    0.02
    CHARGE:  cpu time    4.86: real time    4.86
    MIXING:  cpu time    0.00: real time    0.01
    --------------------------------------------
      LOOP:  cpu time   94.68: real time   94.97

 eigenvalue-minimisations  : 13920
 total energy-change (2. order) : 0.5336960E-01  (-0.2163496E+00)
 number of electron     192.0000277 magnetization 
 augmentation part       19.4967895 magnetization 

 Broyden mixing:
  rms(total) = 0.19895E+00    rms(broyden)= 0.19890E+00
  rms(prec ) = 0.26364E+00
  weight for this iteration     100.00

 eigenvalues of (default mixing * dielectric matrix)
  average eigenvalue GAMMA=   1.5062
  2.4797  1.0195  1.0195

 Free energy of the ion-electron system (eV)
  ---------------------------------------------------
  alpha Z        PSCENC =       674.26796327
  Ewald energy   TEWEN  =     -9741.29843335
  -1/2 Hartree   DENC   =     -4207.09099406
  -exchange  EXHF       =         0.00000000
  -V(xc)+E(xc)   XCENC  =       802.56821798
  PAW double counting   =      9375.00268315    -9365.39496333
  entropy T*S    EENTRO =         0.00000000
  eigenvalues    EBANDS =     -1918.35366505
  atomic energy  EATOM  =     14222.91173270
  ---------------------------------------------------
  free energy    TOTEN  =      -157.38745869 eV

  energy without entropy =     -157.38745869  energy(sigma->0) =     -157.38745869


--------------------------------------------------------------------------------------------------------




----------------------------------------- Iteration    1(   9)  ---------------------------------------


    POTLOK:  cpu time    0.12: real time    0.12
    SETDIJ:  cpu time    0.02: real time    0.02
    EDDIAG:  cpu time   17.37: real time   17.38
  RMM-DIIS:  cpu time   71.38: real time   71.40
    ORTHCH:  cpu time    2.36: real time    2.36
       DOS:  cpu time    0.02: real time    0.02
    CHARGE:  cpu time    4.83: real time    4.84
    MIXING:  cpu time    0.01: real time    0.01
    --------------------------------------------
      LOOP:  cpu time   96.12: real time   96.14

 eigenvalue-minimisations  : 14478
 total energy-change (2. order) : 0.1233042E+00  (-0.4352217E-01)
 number of electron     192.0000275 magnetization 
 augmentation part       19.3504666 magnetization 

 Broyden mixing:
  rms(total) = 0.44859E-01    rms(broyden)= 0.44817E-01
  rms(prec ) = 0.59353E-01
  weight for this iteration     100.00

 eigenvalues of (default mixing * dielectric matrix)
  average eigenvalue GAMMA=   1.7654
  2.4912  2.4912  1.0397  1.0397

 Free energy of the ion-electron system (eV)
  ---------------------------------------------------
  alpha Z        PSCENC =       674.26796327
  Ewald energy   TEWEN  =     -9741.29843335
  -1/2 Hartree   DENC   =     -4222.12598986
  -exchange  EXHF       =         0.00000000
  -V(xc)+E(xc)   XCENC  =       803.77542307
  PAW double counting   =      9428.62735506    -9419.59947281
  entropy T*S    EENTRO =         0.00000000
  eigenvalues    EBANDS =     -1903.82273254
  atomic energy  EATOM  =     14222.91173270
  ---------------------------------------------------
  free energy    TOTEN  =      -157.26415445 eV

  energy without entropy =     -157.26415445  energy(sigma->0) =     -157.26415445


--------------------------------------------------------------------------------------------------------




----------------------------------------- Iteration    1(  10)  ---------------------------------------


    POTLOK:  cpu time    0.13: real time    0.13
    SETDIJ:  cpu time    0.02: real time    0.02
    EDDIAG:  cpu time   17.76: real time   17.76
  RMM-DIIS:  cpu time   71.36: real time   71.37
    ORTHCH:  cpu time    2.41: real time    2.41
       DOS:  cpu time    0.02: real time    0.02
    CHARGE:  cpu time    4.84: real time    4.84
    MIXING:  cpu time    0.01: real time    0.01
    --------------------------------------------
      LOOP:  cpu time   96.54: real time   96.56

 eigenvalue-minimisations  : 14525
 total energy-change (2. order) :-0.1618704E-01  (-0.2193967E-01)
 number of electron     192.0000274 magnetization 
 augmentation part       19.2569036 magnetization 

 Broyden mixing:
  rms(total) = 0.53022E-01    rms(broyden)= 0.52991E-01
  rms(prec ) = 0.68193E-01
  weight for this iteration     100.00

 eigenvalues of (default mixing * dielectric matrix)
  average eigenvalue GAMMA=   1.5897
  2.5335  2.5335  0.9766  0.9766  0.9282

 Free energy of the ion-electron system (eV)
  ---------------------------------------------------
  alpha Z        PSCENC =       674.26796327
  Ewald energy   TEWEN  =     -9741.29843335
  -1/2 Hartree   DENC   =     -4225.74759163
  -exchange  EXHF       =         0.00000000
  -V(xc)+E(xc)   XCENC  =       804.12304684
  PAW double counting   =      9428.74131408    -9419.35340982
  entropy T*S    EENTRO =         0.00000000
  eigenvalues    EBANDS =     -1900.92496359
  atomic energy  EATOM  =     14222.91173270
  ---------------------------------------------------
  free energy    TOTEN  =      -157.28034148 eV

  energy without entropy =     -157.28034148  energy(sigma->0) =     -157.28034148


--------------------------------------------------------------------------------------------------------




----------------------------------------- Iteration    1(  11)  ---------------------------------------


    POTLOK:  cpu time    0.13: real time    0.13
    SETDIJ:  cpu time    0.02: real time    0.02
    EDDIAG:  cpu time   17.80: real time   17.80
  RMM-DIIS:  cpu time   82.59: real time   82.61
    ORTHCH:  cpu time    2.44: real time    2.44
       DOS:  cpu time    0.02: real time    0.02
    CHARGE:  cpu time    4.82: real time    4.82
    MIXING:  cpu time    0.01: real time    0.01
    --------------------------------------------
      LOOP:  cpu time  107.81: real time  107.84

 eigenvalue-minimisations  : 16565
 total energy-change (2. order) : 0.7275722E-02  (-0.1194178E-02)
 number of electron     192.0000274 magnetization 
 augmentation part       19.2642358 magnetization 

 Broyden mixing:
  rms(total) = 0.31289E-01    rms(broyden)= 0.31289E-01
  rms(prec ) = 0.41359E-01
  weight for this iteration     100.00

 eigenvalues of (default mixing * dielectric matrix)
  average eigenvalue GAMMA=   1.6391
  2.7386  2.4684  1.1516  1.1516  0.9548  1.3695

 Free energy of the ion-electron system (eV)
  ---------------------------------------------------
  alpha Z        PSCENC =       674.26796327
  Ewald energy   TEWEN  =     -9741.29843335
  -1/2 Hartree   DENC   =     -4224.87194779
  -exchange  EXHF       =         0.00000000
  -V(xc)+E(xc)   XCENC  =       804.03800693
  PAW double counting   =      9428.12275093    -9418.67763635
  entropy T*S    EENTRO =         0.00000000
  eigenvalues    EBANDS =     -1901.76550211
  atomic energy  EATOM  =     14222.91173270
  ---------------------------------------------------
  free energy    TOTEN  =      -157.27306576 eV

  energy without entropy =     -157.27306576  energy(sigma->0) =     -157.27306576


--------------------------------------------------------------------------------------------------------




----------------------------------------- Iteration    1(  12)  ---------------------------------------


    POTLOK:  cpu time    0.15: real time    0.16
    SETDIJ:  cpu time    0.02: real time    0.02
    EDDIAG:  cpu time   17.13: real time   17.13
  RMM-DIIS:  cpu time   71.21: real time   71.42
    ORTHCH:  cpu time    2.36: real time    2.36
       DOS:  cpu time    0.02: real time    0.02
    CHARGE:  cpu time    4.81: real time    4.82
    MIXING:  cpu time    0.01: real time    0.01
    --------------------------------------------
      LOOP:  cpu time   95.70: real time   95.94

 eigenvalue-minimisations  : 14398
 total energy-change (2. order) : 0.1982876E-02  (-0.2819245E-02)
 number of electron     192.0000274 magnetization 
 augmentation part       19.2954833 magnetization 

 Broyden mixing:
  rms(total) = 0.70994E-02    rms(broyden)= 0.70732E-02
  rms(prec ) = 0.92392E-02
  weight for this iteration     100.00

 eigenvalues of (default mixing * dielectric matrix)
  average eigenvalue GAMMA=   1.5599
  2.6263  2.6263  1.1551  1.0633  1.0633  1.1925  1.1925

 Free energy of the ion-electron system (eV)
  ---------------------------------------------------
  alpha Z        PSCENC =       674.26796327
  Ewald energy   TEWEN  =     -9741.29843335
  -1/2 Hartree   DENC   =     -4223.33394849
  -exchange  EXHF       =         0.00000000
  -V(xc)+E(xc)   XCENC  =       803.88496744
  PAW double counting   =      9423.73411089    -9414.20174978
  entropy T*S    EENTRO =         0.00000000
  eigenvalues    EBANDS =     -1903.23572557
  atomic energy  EATOM  =     14222.91173270
  ---------------------------------------------------
  free energy    TOTEN  =      -157.27108289 eV

  energy without entropy =     -157.27108289  energy(sigma->0) =     -157.27108289


--------------------------------------------------------------------------------------------------------




----------------------------------------- Iteration    1(  13)  ---------------------------------------


    POTLOK:  cpu time    0.30: real time    0.39
    SETDIJ:  cpu time    0.02: real time    0.02
    EDDIAG:  cpu time   17.79: real time   17.79
  RMM-DIIS:  cpu time   69.81: real time   69.82
    ORTHCH:  cpu time    2.51: real time    2.51
       DOS:  cpu time    0.02: real time    0.02
    CHARGE:  cpu time    4.90: real time    4.90
    MIXING:  cpu time    0.01: real time    0.01
    --------------------------------------------
      LOOP:  cpu time   95.36: real time   95.47

 eigenvalue-minimisations  : 13443
 total energy-change (2. order) : 0.3420787E-03  (-0.7813965E-04)
 number of electron     192.0000274 magnetization 
 augmentation part       19.2918017 magnetization 

 Broyden mixing:
  rms(total) = 0.17298E-02    rms(broyden)= 0.17287E-02
  rms(prec ) = 0.23230E-02
  weight for this iteration     100.00

 eigenvalues of (default mixing * dielectric matrix)
  average eigenvalue GAMMA=   1.6575
  2.7675  2.5572  2.5572  1.1974  1.1974  1.0486  1.0486  0.8861

 Free energy of the ion-electron system (eV)
  ---------------------------------------------------
  alpha Z        PSCENC =       674.26796327
  Ewald energy   TEWEN  =     -9741.29843335
  -1/2 Hartree   DENC   =     -4223.64017518
  -exchange  EXHF       =         0.00000000
  -V(xc)+E(xc)   XCENC  =       803.91615465
  PAW double counting   =      9424.59425775    -9415.05273393
  entropy T*S    EENTRO =         0.00000000
  eigenvalues    EBANDS =     -1902.96950673
  atomic energy  EATOM  =     14222.91173270
  ---------------------------------------------------
  free energy    TOTEN  =      -157.27074081 eV

  energy without entropy =     -157.27074081  energy(sigma->0) =     -157.27074081


--------------------------------------------------------------------------------------------------------




----------------------------------------- Iteration    1(  14)  ---------------------------------------


    POTLOK:  cpu time    0.12: real time    0.12
    SETDIJ:  cpu time    0.02: real time    0.02
    EDDIAG:  cpu time   17.23: real time   17.23
  RMM-DIIS:  cpu time   44.17: real time   44.19
    ORTHCH:  cpu time    2.35: real time    2.35
       DOS:  cpu time    0.02: real time    0.02
    --------------------------------------------
      LOOP:  cpu time   63.91: real time   63.94

 eigenvalue-minimisations  :  8540
 total energy-change (2. order) :-0.6516155E-05  (-0.1615942E-04)
 number of electron     192.0000274 magnetization 
 augmentation part       19.2918017 magnetization 

 Free energy of the ion-electron system (eV)
  ---------------------------------------------------
  alpha Z        PSCENC =       674.26796327
  Ewald energy   TEWEN  =     -9741.29843335
  -1/2 Hartree   DENC   =     -4223.57481255
  -exchange  EXHF       =         0.00000000
  -V(xc)+E(xc)   XCENC  =       803.91429785
  PAW double counting   =      9424.78842981    -9415.21770920
  entropy T*S    EENTRO =         0.00000000
  eigenvalues    EBANDS =     -1903.06221586
  atomic energy  EATOM  =     14222.91173270
  ---------------------------------------------------
  free energy    TOTEN  =      -157.27074732 eV

  energy without entropy =     -157.27074732  energy(sigma->0) =     -157.27074732


--------------------------------------------------------------------------------------------------------




 average (electrostatic) potential at core
  the test charge radii are     1.1045  0.7215  0.9698
  (the norm of the test charge is              1.0000)
       1 -34.7465       2 -34.7463       3 -34.7458       4 -35.1441       5 -35.1448
       6 -35.1446       7 -35.1443       8 -34.7462       9 -73.7866      10 -73.7867
      11 -73.7856      12 -73.8541      13 -73.8543      14 -73.8542      15 -73.8547
      16 -73.8543      17 -73.8541      18 -73.8549      19 -73.8544      20 -73.8774
      21 -73.8780      22 -73.8787      23 -73.8777      24 -73.7854      25 -94.2425
      26 -94.2433      27 -94.2433      28 -94.2426
 
 
 
 E-fermi :   0.8364     XC(G=0):  -8.8860     alpha+bet : -8.9877


 k-point   1 :       0.0000    0.0000    0.0000
  band No.  band energies     occupation 
      1     -27.8191      2.00000
      2     -27.8145      2.00000
      3     -27.8096      2.00000
      4     -27.8088      2.00000
      5     -27.4385      2.00000
      6     -27.4375      2.00000
      7     -27.4220      2.00000
      8     -27.4200      2.00000
      9     -22.6228      2.00000
     10     -22.6193      2.00000
     11     -22.6149      2.00000
     12     -22.6107      2.00000
     13     -18.4222      2.00000
     14     -18.4180      2.00000
     15     -18.4079      2.00000
     16     -18.4006      2.00000
     17     -18.3998      2.00000
     18     -18.3971      2.00000
     19     -18.3867      2.00000
     20     -18.3832      2.00000
     21     -18.3783      2.00000
     22     -18.3754      2.00000
     23     -18.3579      2.00000
     24     -18.3477      2.00000
     25     -11.4230      2.00000
     26     -11.4225      2.00000
     27     -11.4210      2.00000
     28     -11.3955      2.00000
     29     -11.3941      2.00000
     30     -11.3909      2.00000
     31     -11.3827      2.00000
     32     -11.3718      2.00000
     33     -11.3529      2.00000
     34     -11.3513      2.00000
     35     -11.3348      2.00000
     36     -11.3314      2.00000
     37     -11.2031      2.00000
     38     -11.0880      2.00000
     39     -11.0486      2.00000
     40     -11.0190      2.00000
     41     -11.0186      2.00000
     42     -11.0022      2.00000
     43     -10.9896      2.00000
     44     -10.9859      2.00000
     45     -10.9730      2.00000
     46     -10.9638      2.00000
     47     -10.8981      2.00000
     48     -10.8967      2.00000
     49      -8.2854      2.00000
     50      -8.0605      2.00000
     51      -7.9511      2.00000
     52      -7.9363      2.00000
     53      -5.7910      2.00000
     54      -5.6619      2.00000
     55      -5.6557      2.00000
     56      -5.6413      2.00000
     57      -5.6169      2.00000
     58      -5.6008      2.00000
     59      -5.5920      2.00000
     60      -5.5877      2.00000
     61      -5.5536      2.00000
     62      -5.5489      2.00000
     63      -5.5119      2.00000
     64      -5.5115      2.00000
     65      -2.8179      2.00000
     66      -2.7373      2.00000
     67      -2.6879      2.00000
     68      -2.6637      2.00000
     69      -2.5560      2.00000
     70      -2.5405      2.00000
     71      -2.5277      2.00000
     72      -2.5157      2.00000
     73      -2.4853      2.00000
     74      -2.4817      2.00000
     75      -2.2692      2.00000
     76      -2.2687      2.00000
     77      -2.2407      2.00000
     78      -2.2130      2.00000
     79      -2.1761      2.00000
     80      -2.0963      2.00000
     81      -2.0042      2.00000
     82      -1.9613      2.00000
     83      -1.9312      2.00000
     84      -1.8890      2.00000
     85      -0.4989      2.00000
     86      -0.4428      2.00000
     87      -0.3772      2.00000
     88      -0.3242      2.00000
     89      -0.3038      2.00000
     90      -0.2957      2.00000
     91      -0.2578      2.00000
     92      -0.2292      2.00000
     93      -0.2223      2.00000
     94      -0.2108      2.00000
     95      -0.1665      2.00000
     96      -0.0904      2.00000
     97       5.2347      0.00000
     98       6.9561      0.00000
     99       7.4428      0.00000
    100       7.4649      0.00000
    101       7.5530      0.00000
    102       7.5999      0.00000
    103       7.8330      0.00000
    104       7.9237      0.00000
    105       7.9761      0.00000
    106       8.0145      0.00000
    107       8.0620      0.00000
    108       8.0676      0.00000
    109       8.0868      0.00000
    110       8.1382      0.00000
    111       8.5048      0.00000
    112       8.6089      0.00000
    113       8.7783      0.00000
    114       8.9133      0.00000
    115       9.0146      0.00000
    116       9.0961      0.00000

 k-point   2 :       0.1667    0.0000    0.0000
  band No.  band energies     occupation 
      1     -27.8187      2.00000
      2     -27.8147      2.00000
      3     -27.8097      2.00000
      4     -27.8089      2.00000
      5     -27.4374      2.00000
      6     -27.4363      2.00000
      7     -27.4231      2.00000
      8     -27.4212      2.00000
      9     -22.6229      2.00000
     10     -22.6197      2.00000
     11     -22.6152      2.00000
     12     -22.6114      2.00000
     13     -18.4190      2.00000
     14     -18.4165      2.00000
     15     -18.4082      2.00000
     16     -18.4032      2.00000
     17     -18.3985      2.00000
     18     -18.3958      2.00000
     19     -18.3862      2.00000
     20     -18.3839      2.00000
     21     -18.3792      2.00000
     22     -18.3700      2.00000
     23     -18.3612      2.00000
     24     -18.3467      2.00000
     25     -11.4289      2.00000
     26     -11.4281      2.00000
     27     -11.4179      2.00000
     28     -11.3976      2.00000
     29     -11.3967      2.00000
     30     -11.3942      2.00000
     31     -11.3863      2.00000
     32     -11.3741      2.00000
     33     -11.3664      2.00000
     34     -11.3544      2.00000
     35     -11.3372      2.00000
     36     -11.3346      2.00000
     37     -11.1855      2.00000
     38     -11.0780      2.00000
     39     -11.0409      2.00000
     40     -11.0164      2.00000
     41     -11.0155      2.00000
     42     -11.0021      2.00000
     43     -10.9996      2.00000
     44     -10.9873      2.00000
     45     -10.9744      2.00000
     46     -10.9643      2.00000
     47     -10.9116      2.00000
     48     -10.9050      2.00000
     49      -8.2580      2.00000
     50      -8.0488      2.00000
     51      -7.9548      2.00000
     52      -7.9527      2.00000
     53      -5.7774      2.00000
     54      -5.6791      2.00000
     55      -5.6334      2.00000
     56      -5.6214      2.00000
     57      -5.5978      2.00000
     58      -5.5953      2.00000
     59      -5.5915      2.00000
     60      -5.5662      2.00000
     61      -5.5598      2.00000
     62      -5.5359      2.00000
     63      -5.5085      2.00000
     64      -5.5071      2.00000
     65      -2.8108      2.00000
     66      -2.7292      2.00000
     67      -2.6777      2.00000
     68      -2.6570      2.00000
     69      -2.5810      2.00000
     70      -2.5658      2.00000
     71      -2.5366      2.00000
     72      -2.5107      2.00000
     73      -2.5046      2.00000
     74      -2.4938      2.00000
     75      -2.2997      2.00000
     76      -2.2301      2.00000
     77      -2.2189      2.00000
     78      -2.2039      2.00000
     79      -2.1693      2.00000
     80      -2.1025      2.00000
     81      -2.0316      2.00000
     82      -2.0048      2.00000
     83      -1.9472      2.00000
     84      -1.9006      2.00000
     85      -0.4917      2.00000
     86      -0.4387      2.00000
     87      -0.3739      2.00000
     88      -0.3498      2.00000
     89      -0.3395      2.00000
     90      -0.2669      2.00000
     91      -0.2585      2.00000
     92      -0.2304      2.00000
     93      -0.2158      2.00000
     94      -0.2117      2.00000
     95      -0.1732      2.00000
     96      -0.1029      2.00000
     97       5.3742      0.00000
     98       7.0403      0.00000
     99       7.2893      0.00000
    100       7.4808      0.00000
    101       7.5380      0.00000
    102       7.5904      0.00000
    103       7.8033      0.00000
    104       7.9035      0.00000
    105       7.9729      0.00000
    106       8.0558      0.00000
    107       8.1303      0.00000
    108       8.1402      0.00000
    109       8.1471      0.00000
    110       8.1635      0.00000
    111       8.4470      0.00000
    112       8.5514      0.00000
    113       8.6887      0.00000
    114       8.7397      0.00000
    115       8.9084      0.00000
    116       8.9823      0.00000

 k-point   3 :       0.3333    0.0000    0.0000
  band No.  band energies     occupation 
      1     -27.8176      2.00000
      2     -27.8151      2.00000
      3     -27.8098      2.00000
      4     -27.8092      2.00000
      5     -27.4345      2.00000
      6     -27.4331      2.00000
      7     -27.4262      2.00000
      8     -27.4243      2.00000
      9     -22.6227      2.00000
     10     -22.6207      2.00000
     11     -22.6155      2.00000
     12     -22.6131      2.00000
     13     -18.4136      2.00000
     14     -18.4127      2.00000
     15     -18.4089      2.00000
     16     -18.4073      2.00000
     17     -18.3952      2.00000
     18     -18.3897      2.00000
     19     -18.3865      2.00000
     20     -18.3850      2.00000
     21     -18.3812      2.00000
     22     -18.3689      2.00000
     23     -18.3600      2.00000
     24     -18.3470      2.00000
     25     -11.4417      2.00000
     26     -11.4371      2.00000
     27     -11.4224      2.00000
     28     -11.4129      2.00000
     29     -11.4006      2.00000
     30     -11.3993      2.00000
     31     -11.3839      2.00000
     32     -11.3802      2.00000
     33     -11.3794      2.00000
     34     -11.3619      2.00000
     35     -11.3422      2.00000
     36     -11.3412      2.00000
     37     -11.1413      2.00000
     38     -11.0491      2.00000
     39     -11.0375      2.00000
     40     -11.0201      2.00000
     41     -11.0112      2.00000
     42     -11.0077      2.00000
     43     -10.9930      2.00000
     44     -10.9916      2.00000
     45     -10.9785      2.00000
     46     -10.9646      2.00000
     47     -10.9400      2.00000
     48     -10.9353      2.00000
     49      -8.1854      2.00000
     50      -8.0198      2.00000
     51      -8.0080      2.00000
     52      -7.9643      2.00000
     53      -5.7496      2.00000
     54      -5.7002      2.00000
     55      -5.6100      2.00000
     56      -5.6061      2.00000
     57      -5.5889      2.00000
     58      -5.5716      2.00000
     59      -5.5629      2.00000
     60      -5.5517      2.00000
     61      -5.5213      2.00000
     62      -5.5040      2.00000
     63      -5.5021      2.00000
     64      -5.5002      2.00000
     65      -2.7870      2.00000
     66      -2.7057      2.00000
     67      -2.6604      2.00000
     68      -2.6519      2.00000
     69      -2.6391      2.00000
     70      -2.6167      2.00000
     71      -2.5587      2.00000
     72      -2.5433      2.00000
     73      -2.4867      2.00000
     74      -2.4796      2.00000
     75      -2.3684      2.00000
     76      -2.1976      2.00000
     77      -2.1832      2.00000
     78      -2.1810      2.00000
     79      -2.1561      2.00000
     80      -2.1469      2.00000
[...]
     16     -18.4842      2.00000
     17     -18.4546      2.00000
     18     -18.4541      2.00000
     19     -18.4537      2.00000
     20     -18.4535      2.00000
     21     -18.4195      2.00000
     22     -18.4195      2.00000
     23     -18.4190      2.00000
     24     -18.4188      2.00000
     25     -11.5611      2.00000
     26     -11.5608      2.00000
     27     -11.5604      2.00000
     28     -11.5602      2.00000
     29     -11.5195      2.00000
     30     -11.5194      2.00000
     31     -11.5188      2.00000
     32     -11.5188      2.00000
     33     -11.4757      2.00000
     34     -11.4756      2.00000
     35     -11.4750      2.00000
     36     -11.4750      2.00000
     37     -11.1794      2.00000
     38     -11.1793      2.00000
     39     -11.1793      2.00000
     40     -11.1792      2.00000
     41     -11.1479      2.00000
     42     -11.1478      2.00000
     43     -11.1476      2.00000
     44     -11.1473      2.00000
     45     -11.1198      2.00000
     46     -11.1197      2.00000
     47     -11.1197      2.00000
     48     -11.1196      2.00000
     49      -8.0577      2.00000
     50      -8.0576      2.00000
     51      -8.0572      2.00000
     52      -8.0570      2.00000
     53      -5.7416      2.00000
     54      -5.7416      2.00000
     55      -5.7415      2.00000
     56      -5.7414      2.00000
     57      -5.6750      2.00000
     58      -5.6748      2.00000
     59      -5.6745      2.00000
     60      -5.6741      2.00000
     61      -5.5487      2.00000
     62      -5.5484      2.00000
     63      -5.5480      2.00000
     64      -5.5477      2.00000
     65      -2.8097      2.00000
     66      -2.8095      2.00000
     67      -2.8091      2.00000
     68      -2.8089      2.00000
     69      -2.6734      2.00000
     70      -2.6733      2.00000
     71      -2.6726      2.00000
     72      -2.6726      2.00000
     73      -2.5746      2.00000
     74      -2.5743      2.00000
     75      -2.5743      2.00000
     76      -2.5741      2.00000
     77      -2.2365      2.00000
     78      -2.2365      2.00000
     79      -2.2361      2.00000
     80      -2.2359      2.00000
     81      -2.1666      2.00000
     82      -2.1665      2.00000
     83      -2.1660      2.00000
     84      -2.1659      2.00000
     85      -0.5311      2.00000
     86      -0.5310      2.00000
     87      -0.5309      2.00000
     88      -0.5307      2.00000
     89      -0.4059      2.00000
     90      -0.4058      2.00000
     91      -0.4057      2.00000
     92      -0.4055      2.00000
     93      -0.3352      2.00000
     94      -0.3350      2.00000
     95      -0.3348      2.00000
     96      -0.3347      2.00000
     97       7.3378      0.00000
     98       7.3379      0.00000
     99       7.3381      0.00000
    100       7.3383      0.00000
    101       7.6659      0.00000
    102       7.6660      0.00000
    103       7.6663      0.00000
    104       7.6663      0.00000
    105       7.8754      0.00000
    106       7.8756      0.00000
    107       7.8758      0.00000
    108       7.8759      0.00000
    109       8.3941      0.00000
    110       8.3942      0.00000
    111       8.3945      0.00000
    112       8.3946      0.00000
    113       8.6485      0.00000
    114       8.6486      0.00000
    115       8.6488      0.00000
    116       8.6488      0.00000


--------------------------------------------------------------------------------------------------------


 soft charge-density along one line, spin component           1
         0         1         2         3         4         5         6         7         8         9
 total charge-density along one line
 
 pseudopotential strength for first ion, spin component:           1
-14.656  -5.134   0.000   0.000  -0.001   0.000   0.000   0.000
 -5.134  -3.704  -0.001   0.000  -0.001   0.000   0.000   0.000
  0.000  -0.001 -16.619   0.000   0.000   0.311   0.000   0.000
  0.000   0.000   0.000 -16.621   0.000   0.000   0.311   0.000
 -0.001  -0.001   0.000   0.000 -16.617   0.000   0.000   0.310
  0.000   0.000   0.311   0.000   0.000   0.137   0.000   0.000
  0.000   0.000   0.000   0.311   0.000   0.000   0.137   0.000
  0.000   0.000   0.000   0.000   0.310   0.000   0.000   0.137
  0.000   0.000  -0.001   0.000   0.000   0.000   0.000   0.000
  0.000   0.000   0.000  -0.001   0.000   0.000   0.000   0.000
 -0.002  -0.001   0.000   0.000   0.000   0.000   0.000   0.000
  0.000   0.000   0.000  -0.001   0.000   0.000   0.000   0.000
  0.001   0.001   0.000   0.000  -0.001   0.000   0.000   0.000
 total augmentation occupancy for first ion, spin component:           1
  2.038  -0.094  -0.003   0.000  -0.004   0.008   0.000   0.005  -0.001   0.000   0.003   0.000  -0.003
 -0.094   0.236   0.010   0.000   0.010  -0.015   0.000  -0.005   0.003   0.000  -0.005   0.000   0.005
 -0.003   0.010   2.012   0.000   0.000  -0.001   0.000  -0.001   0.005   0.000  -0.001   0.000   0.000
  0.000   0.000   0.000   2.010   0.000   0.000   0.004   0.000   0.000   0.001   0.000   0.000   0.000
 -0.004   0.010   0.000   0.000   2.015  -0.001   0.000  -0.011   0.004   0.000  -0.003   0.000   0.000
  0.008  -0.015  -0.001   0.000  -0.001   0.063   0.000   0.003  -0.005   0.000   0.003   0.000  -0.001
  0.000   0.000   0.000   0.004   0.000   0.000   0.058   0.000   0.000   0.000   0.000   0.003   0.000
  0.005  -0.005  -0.001   0.000  -0.011   0.003   0.000   0.080  -0.007   0.000   0.003   0.000   0.001
 -0.001   0.003   0.005   0.000   0.004  -0.005   0.000  -0.007   0.007   0.000  -0.002   0.000   0.000
  0.000   0.000   0.000   0.001   0.000   0.000   0.000   0.000   0.000   0.004   0.000  -0.002   0.000
  0.003  -0.005  -0.001   0.000  -0.003   0.003   0.000   0.003  -0.002   0.000   0.005   0.000   0.000
  0.000   0.000   0.000   0.000   0.000   0.000   0.003   0.000   0.000  -0.002   0.000   0.007   0.000
 -0.003   0.005   0.000   0.000   0.000  -0.001   0.000   0.001   0.000   0.000   0.000   0.000   0.006


------------------------ aborting loop because EDIFF is reached ----------------------------------------


 


 total charge     
 
# of ion     s       p       d       tot
----------------------------------------
  1        1.954   5.587   0.023   7.563
  2        1.954   5.587   0.023   7.563
  3        1.954   5.587   0.023   7.563
  4        1.952   5.582   0.020   7.555
  5        1.952   5.582   0.020   7.555
  6        1.952   5.582   0.020   7.555
  7        1.952   5.582   0.020   7.555
  8        1.954   5.587   0.023   7.563
  9        1.583   3.556   0.000   5.139
 10        1.583   3.556   0.000   5.139
 11        1.583   3.556   0.000   5.139
 12        1.581   3.555   0.000   5.137
 13        1.581   3.556   0.000   5.137
 14        1.581   3.555   0.000   5.136
 15        1.581   3.555   0.000   5.137
 16        1.581   3.556   0.000   5.137
 17        1.581   3.556   0.000   5.137
 18        1.581   3.555   0.000   5.137
 19        1.581   3.555   0.000   5.137
 20        1.580   3.556   0.000   5.136
 21        1.580   3.556   0.000   5.136
 22        1.580   3.556   0.000   5.136
 23        1.580   3.556   0.000   5.136
 24        1.583   3.556   0.000   5.139
 25        1.230   2.259   0.000   3.489
 26        1.230   2.259   0.000   3.489
 27        1.230   2.259   0.000   3.489
 28        1.230   2.259   0.000   3.489
------------------------------------------------
tot       45.844 110.605   0.172 156.621
 
    CHARGE:  cpu time    4.87: real time    4.88
    FORLOC:  cpu time    0.04: real time    0.04
    FORNL :  cpu time   25.76: real time   25.77
    STRESS:  cpu time   78.01: real time   78.10
    FORCOR:  cpu time    0.14: real time    0.14
    FORHAR:  cpu time    0.07: real time    0.07
    MIXING:  cpu time    0.00: real time    0.01
    FORVDW:  cpu time    0.00: real time    0.00

  FORCE on cell =-STRESS in cart. coord.  units (eV):
  Direction    XX          YY          ZZ          XY          YZ          ZX
  --------------------------------------------------------------------------------------
  Alpha Z   661.88037   661.88037   661.88037
  Ewald   -3172.73914 -3259.38329 -3216.72348    -0.00513     0.00000     0.00136
  Hartree  1437.28676  1405.46962  1442.21373     0.00000     0.00000     0.00000
  E(xc)    -875.75397  -876.04625  -876.01779     0.00001     0.00000    -0.00001
  Local   -1027.84841  -911.57597  -991.34716     0.00404     0.00000    -0.00128
  n-local  -568.93467  -571.49140  -570.91171     0.00137     0.00347     0.01564
  augment   115.09339   115.09193   115.14414     0.00004     0.00000    -0.00003
  Kinetic  3430.74539  3435.57615  3435.54964    -0.00122    -0.05464    -0.12299
  Fock        0.00000     0.00000     0.00000     0.00000     0.00000     0.00000
  -------------------------------------------------------------------------------------
  Total      -0.27027    -0.47884    -0.21225     0.00000     0.00000     0.00000
  in kB      -0.94829    -1.68010    -0.74472     0.00000     0.00000     0.00000
  external pressure =       -1.12 kB  Pullay stress =        0.00 kB


 VOLUME and BASIS-vectors are now :
 -----------------------------------------------------------------------------
  energy-cutoff  :      500.00
  volume of cell :      456.63
      direct lattice vectors                 reciprocal lattice vectors
     7.625319131  0.000000000  0.000000000     0.131142052  0.000000000  0.000000000
     0.000000000 10.245950693  0.000000000     0.000000000  0.097599533  0.000000000
     0.000000000  0.000000000  5.844566853     0.000000000  0.000000000  0.171099078

  length of vectors
     7.625319131 10.245950693  5.844566853     0.131142052  0.097599533  0.171099078


 FORCES acting on ions
    electron-ion (+dipol)            ewald-force                    non-local-force                 convergence-correction
 -----------------------------------------------------------------------------------------------
   -.311E+01 -.317E+02 0.633E-02   0.272E+01 0.314E+02 0.192E-02   0.374E+00 0.339E+00 0.000E+00   0.854E-03 -.246E-02 -.219E-06
   0.310E+01 0.318E+02 0.169E-02   -.272E+01 -.314E+02 -.839E-03   -.374E+00 -.339E+00 0.000E+00   -.856E-03 0.246E-02 -.205E-06
   -.311E+01 0.318E+02 0.341E-02   0.272E+01 -.314E+02 0.192E-02   0.374E+00 -.339E+00 -.108E-18   0.855E-03 0.246E-02 -.361E-06
   0.182E+01 0.100E+02 -.741E-04   -.124E+01 -.944E+01 -.138E-02   -.528E+00 -.573E+00 0.339E-20   -.261E-02 -.612E-03 0.189E-06
   -.181E+01 0.100E+02 0.542E-02   0.125E+01 -.944E+01 0.164E-02   0.528E+00 -.573E+00 0.000E+00   0.261E-02 -.612E-03 -.788E-07
   0.180E+01 -.100E+02 0.879E-03   -.125E+01 0.944E+01 -.138E-02   -.528E+00 0.573E+00 0.000E+00   -.261E-02 0.611E-03 -.139E-06
   -.182E+01 -.100E+02 0.447E-02   0.124E+01 0.944E+01 0.164E-02   0.528E+00 0.573E+00 0.000E+00   0.261E-02 0.613E-03 0.249E-06
   0.310E+01 -.318E+02 -.123E-02   -.272E+01 0.314E+02 -.839E-03   -.374E+00 0.339E+00 0.108E-18   -.854E-03 -.246E-02 -.347E-06
   -.214E+03 0.195E+02 0.929E-02   0.258E+03 -.216E+02 0.963E-03   -.443E+02 0.208E+01 0.173E-17   -.688E-02 -.216E-02 -.111E-06
   0.214E+03 -.195E+02 0.543E-03   -.258E+03 0.216E+02 -.896E-03   0.443E+02 -.208E+01 -.163E-17   0.687E-02 0.215E-02 0.691E-07
   -.214E+03 -.195E+02 0.955E-02   0.258E+03 0.216E+02 0.963E-03   -.443E+02 -.208E+01 0.173E-17   -.687E-02 0.216E-02 0.218E-07
   -.824E+02 0.102E+03 0.170E+03   0.980E+02 -.122E+03 -.205E+03   -.156E+02 0.198E+02 0.349E+02   0.737E-03 0.343E-02 0.482E-02
   0.824E+02 0.102E+03 -.170E+03   -.980E+02 -.122E+03 0.205E+03   0.156E+02 0.198E+02 -.349E+02   -.737E-03 0.343E-02 -.482E-02
   -.824E+02 -.102E+03 -.170E+03   0.980E+02 0.122E+03 0.205E+03   -.156E+02 -.198E+02 -.349E+02   0.737E-03 -.343E-02 -.482E-02
   0.824E+02 -.102E+03 0.170E+03   -.980E+02 0.122E+03 -.205E+03   0.156E+02 -.198E+02 0.349E+02   -.737E-03 -.343E-02 0.482E-02
   0.824E+02 -.102E+03 -.170E+03   -.980E+02 0.122E+03 0.205E+03   0.156E+02 -.198E+02 -.349E+02   -.737E-03 -.343E-02 -.482E-02
   -.824E+02 -.102E+03 0.170E+03   0.980E+02 0.122E+03 -.205E+03   -.156E+02 -.198E+02 0.349E+02   0.737E-03 -.343E-02 0.482E-02
   0.824E+02 0.102E+03 0.170E+03   -.980E+02 -.122E+03 -.205E+03   0.156E+02 0.198E+02 0.349E+02   -.736E-03 0.343E-02 0.482E-02
   -.824E+02 0.102E+03 -.170E+03   0.980E+02 -.122E+03 0.205E+03   -.156E+02 0.198E+02 -.349E+02   0.737E-03 0.343E-02 -.482E-02
   -.805E+02 -.201E+03 0.109E-02   0.946E+02 0.241E+03 -.865E-03   -.141E+02 -.401E+02 0.108E-18   -.183E-03 -.933E-02 -.485E-07
   0.805E+02 -.201E+03 0.854E-02   -.946E+02 0.241E+03 0.110E-02   0.141E+02 -.401E+02 -.339E-18   0.183E-03 -.934E-02 0.416E-06
   -.805E+02 0.201E+03 -.161E-03   0.946E+02 -.241E+03 -.865E-03   -.141E+02 0.401E+02 0.217E-18   -.184E-03 0.934E-02 0.385E-06
   0.805E+02 0.201E+03 0.981E-02   -.946E+02 -.241E+03 0.110E-02   0.141E+02 0.401E+02 0.000E+00   0.183E-03 0.934E-02 -.171E-07
   0.214E+03 0.195E+02 0.815E-03   -.258E+03 -.216E+02 -.896E-03   0.443E+02 0.208E+01 -.163E-17   0.687E-02 -.216E-02 0.202E-06
   -.124E+01 0.317E+01 0.233E-02   0.527E+00 -.343E+01 0.101E-02   0.727E+00 0.300E+00 0.108E-18   -.778E-03 -.132E-02 0.444E-06
   0.124E+01 0.317E+01 -.932E-03   -.527E+00 -.343E+01 0.411E-02   -.727E+00 0.300E+00 0.000E+00   0.779E-03 -.132E-02 0.454E-06
   -.123E+01 -.317E+01 -.197E-02   0.534E+00 0.343E+01 0.101E-02   0.727E+00 -.300E+00 0.000E+00   -.779E-03 0.132E-02 0.398E-06
   0.123E+01 -.317E+01 0.337E-02   -.528E+00 0.342E+01 0.411E-02   -.727E+00 -.300E+00 -.108E-18   0.779E-03 0.132E-02 0.501E-06
 -----------------------------------------------------------------------------------------------
   -.946E-01 0.882E-01 0.923E-02   0.152E-12 -.657E-13 -.519E-14   0.000E+00 -.147E-13 -.164E-17   0.482E-06 -.134E-05 0.267E-05
 
 
 POSITION                                       TOTAL-FORCE (eV/Angst)
 -----------------------------------------------------------------------------------
      3.90288      2.05229      4.38342        -0.014815      0.020354      0.000000
      3.72245      8.19367      1.46114         0.014815     -0.020354      0.000000
      0.09022      3.07068      4.38342        -0.014815     -0.020354      0.000000
      5.12547      4.20231      1.46114         0.035817      0.022417      0.000000
      6.31250      9.32528      4.38342        -0.035817      0.022417      0.000000
      1.31282      0.92066      1.46114         0.035817     -0.022417      0.000000
      2.49985      6.04365      4.38342        -0.035817     -0.022417      0.000000
      7.53511      7.17527      1.46114         0.014815      0.020354      0.000000
      3.51281      9.37354      4.38342         0.012380      0.011641      0.000000
      4.11252      0.87241      1.46114        -0.012380     -0.011641      0.000000
      7.32546      5.99539      4.38342         0.012380     -0.011641      0.000000
      2.31729      3.61984      0.23797        -0.019495     -0.006269      0.000278
      1.49537      8.74283      5.60659         0.019495     -0.006269     -0.000278
      6.12994      1.50313      2.68432        -0.019495      0.006269     -0.000278
      5.30804      6.62611      3.16026         0.019495      0.006269      0.000278
      5.30804      6.62611      5.60659         0.019495      0.006269     -0.000278
      6.12994      1.50313      0.23797        -0.019495      0.006269      0.000278
      1.49537      8.74283      3.16026         0.019495     -0.006269      0.000278
      2.31729      3.61984      2.68432        -0.019495     -0.006269     -0.000278
      2.26162      5.72891      1.46114        -0.022630     -0.021820      0.000000
      1.55104      0.60594      4.38342         0.022630     -0.021820      0.000000
      6.07428      9.64001      1.46114        -0.022630      0.021820      0.000000
      5.36370      4.51704      4.38342         0.022630      0.021820      0.000000
      0.29985      4.25057      1.46114        -0.012380      0.011641      0.000000
      1.78667      4.30359      1.46114         0.020876      0.041453      0.000000
      2.02599      9.42657      4.38342        -0.020876      0.041453      0.000000
      5.59932      0.81938      1.46114         0.020876     -0.041453      0.000000
      5.83864      5.94236      4.38342        -0.020876     -0.041453      0.000000
 -----------------------------------------------------------------------------------
    total drift:                               -0.094595      0.088227      0.009236


--------------------------------------------------------------------------------------------------------



  FREE ENERGIE OF THE ION-ELECTRON SYSTEM (eV)
  ---------------------------------------------------
  free  energy   TOTEN  =      -157.28280534 eV

  energy  without entropy=     -157.28280534  energy(sigma->0) =     -157.28280534
 
 d Force = 0.5395987E-03[ 0.446E-03, 0.634E-03]  d Energy = 0.3292269E-03 0.210E-03
 d Force =-0.1226517E+01[-0.123E+01,-0.122E+01]  d Ewald  =-0.6188984E+01 0.496E+01


--------------------------------------------------------------------------------------------------------


    POTLOK:  cpu time    0.14: real time    0.14


--------------------------------------------------------------------------------------------------------




--------------------------------------------------------------------------------------------------------


  
 reached required accuracy - stopping structural energy minimisation
     LOOP+:  cpu time  470.25: real time  470.63
    4ORBIT:  cpu time    0.00: real time    0.00
 


 total charge     
 
# of ion     s       p       d       tot
----------------------------------------
  1        1.954   5.587   0.023   7.563
  2        1.954   5.587   0.023   7.563
  3        1.954   5.587   0.023   7.563
  4        1.952   5.582   0.020   7.555
  5        1.952   5.582   0.020   7.555
  6        1.952   5.582   0.020   7.555
  7        1.952   5.582   0.020   7.555
  8        1.954   5.587   0.023   7.563
  9        1.583   3.556   0.000   5.139
 10        1.583   3.556   0.000   5.139
 11        1.583   3.556   0.000   5.139
 12        1.581   3.555   0.000   5.137
 13        1.581   3.556   0.000   5.137
 14        1.581   3.555   0.000   5.136
 15        1.581   3.555   0.000   5.137
 16        1.581   3.556   0.000   5.137
 17        1.581   3.556   0.000   5.137
 18        1.581   3.555   0.000   5.137
 19        1.581   3.555   0.000   5.137
 20        1.580   3.556   0.000   5.136
 21        1.580   3.556   0.000   5.136
 22        1.580   3.556   0.000   5.136
 23        1.580   3.556   0.000   5.136
 24        1.583   3.556   0.000   5.139
 25        1.230   2.259   0.000   3.489
 26        1.230   2.259   0.000   3.489
 27        1.230   2.259   0.000   3.489
 28        1.230   2.259   0.000   3.489
------------------------------------------------
tot       45.844 110.605   0.172 156.621
 

 total amount of memory used by VASP on root node   206930. kBytes
========================================================================

   base      :      30000. kBytes
   nonlr-proj:       3297. kBytes
   fftplans  :       4262. kBytes
   grid      :       7064. kBytes
   one-center:         56. kBytes
   wavefun   :     162251. kBytes
 
  
  
 General timing and accounting informations for this job:
 ========================================================
  
                  Total CPU time used (sec):     5946.039
                            User time (sec):     5658.168
                          System time (sec):      287.871
                         Elapsed time (sec):     5956.679
  
                   Maximum memory used (kb):      532748.
                   Average memory used (kb):           0.
  
                          Minor page faults:      6068511
                          Major page faults:           38
                 Voluntary context switches:         2635
