   68   68    1    1
  0.6004690E+01  0.1119391E-08  0.4227517E-09  0.8654317E-09  0.5000000E-15
 1.00000000000000005E-4
  CAR 
 unknown system                          
  224   35  150
 
  0.3742002E-15  0.3742002E-15  0.3742002E-15  0.1041667E-01
   1      -41.754018
   2      -41.750088
   3      -41.708787
   4      -41.705506
   5      -22.346463
   6      -22.242165
   7      -22.178002
   8      -22.130117
   9      -21.788167
  10      -21.769008
  11      -21.692093
  12      -21.627105
  13      -21.338743
  14      -21.222648
  15      -21.179682
  16      -21.119594
  17      -21.082917
  18      -21.048347
  19      -21.033433
  20      -21.011390
  21      -19.040090
  22      -18.989929
  23      -17.484296
  24      -17.464205
  25      -17.144411
  26      -17.097382
  27      -17.069967
  28      -17.052374
  29      -10.872992
  30      -10.621791
  31      -10.356887
  32      -10.295621
  33       -7.502460
  34       -7.300729
  35       -7.113080
  36       -7.104836
  37       -6.922552
  38       -6.911632
  39       -6.814302
  40       -6.787933
  41       -6.523517
  42       -6.479144
  43       -6.433838
  44       -6.381915
  45       -5.827188
  46       -5.792789
  47       -5.283290
  48       -5.254598
  49       -4.980855
  50       -4.870653
  51       -4.796525
  52       -4.758901
  53       -4.706012
  54       -4.693332
  55       -4.495593
  56       -4.462491
  57       -4.359900
  58       -4.340180
  59       -4.210379
  60       -4.122986
  61       -3.997478
  62       -3.967222
  63       -3.959903
  64       -3.480397
  65       -3.443917
  66       -3.417206
  67       -3.415522
  68       -3.407917
  69       -3.267114
  70       -3.247363
  71       -3.198432
  72       -3.047328
  73       -3.026226
  74       -2.965610
  75       -2.839261
  76       -2.741436
  77       -2.644879
  78       -2.575487
  79       -2.522057
  80       -2.485235
  81       -2.422365
  82       -2.372253
  83       -2.363799
  84       -2.320175
  85       -2.243108
  86       -2.199579
  87       -2.141874
  88       -2.120375
  89       -2.058540
  90       -2.058474
  91       -1.943451
  92       -1.909008
  93       -1.865297
  94       -1.830227
  95       -1.806353
  96       -1.669097
  97       -1.660439
  98       -1.607219
  99       -1.566610
 100       -1.536314
 101       -1.465931
 102       -1.427637
 103       -1.327668
 104       -1.267097
 105       -1.226053
 106       -1.190671
 107       -1.059174
 108       -1.058530
 109       -0.486856
 110       -0.383739
 111       -0.289366
 112       -0.215892
 113        7.416129
 114        7.802699
 115        8.480789
 116        8.526521
 117        8.735086
 118        8.889477
 119        8.964222
 120        9.712027
 121        9.772445
 122        9.872324
 123        9.987194
 124       10.300599
 125       10.607379
 126       10.626868
 127       10.645793
 128       10.854847
 129       10.978913
 130       11.289882
 131       11.312180
 132       11.387002
 133       11.517905
 134       11.585430
 135       11.746996
 136       11.809058
 137       11.932845
 138       12.242956
 139       12.287775
 140       12.311462
 141       12.399014
 142       12.450841
 143       12.669917
 144       12.838022
 145       13.047991
 146       13.061253
 147       13.232099
 148       13.427651
 149       13.609192
 150       13.650960
 
  0.3333333E+00  0.3742002E-15  0.3816392E-15  0.2083333E-01
   1      -41.754008
   2      -41.750066
   3      -41.708776
   4      -41.705497
   5      -22.342011
   6      -22.248897
   7      -22.182917
   8      -22.123320
   9      -21.782554
  10      -21.773780
  11      -21.689988
  12      -21.629028
  13      -21.336525
  14      -21.226152
  15      -21.180147
  16      -21.118420
  17      -21.083963
  18      -21.047721
  19      -21.033599
  20      -21.010095
  21      -19.040000
  22      -18.989940
  23      -17.484368
  24      -17.464437
  25      -17.144584
  26      -17.096686
  27      -17.069600
  28      -17.052843
  29      -10.873806
  30      -10.621558
  31      -10.355969
  32      -10.295577
  33       -7.495762
  34       -7.299026
  35       -7.123675
  36       -7.075279
  37       -6.947507
  38       -6.924951
  39       -6.815932
  40       -6.789579
  41       -6.506405
  42       -6.484877
  43       -6.449111
  44       -6.384577
  45       -5.804014
  46       -5.779234
  47       -5.207761
  48       -5.172414
  49       -5.006407
  50       -4.956586
  51       -4.879015
  52       -4.866549
  53       -4.801664
  54       -4.648631
  55       -4.513863
  56       -4.389010
  57       -4.342463
  58       -4.301309
  59       -4.211308
  60       -4.151731
  61       -4.061487
  62       -3.904689
  63       -3.718186
  64       -3.521220
  65       -3.509963
  66       -3.399815
  67       -3.399509
  68       -3.380479
  69       -3.282033
  70       -3.263149
  71       -3.134792
  72       -3.044628
  73       -3.015604
  74       -2.997790
  75       -2.849425
  76       -2.827725
  77       -2.679302
  78       -2.600857
  79       -2.547525
  80       -2.455011
  81       -2.445631
  82       -2.430047
  83       -2.372314
  84       -2.261379
  85       -2.254852
  86       -2.184631
  87       -2.132500
  88       -2.086303
  89       -2.066366
  90       -2.065275
  91       -1.934775
  92       -1.906876
  93       -1.843170
  94       -1.823287
  95       -1.764344
  96       -1.699201
  97       -1.653435
  98       -1.602852
  99       -1.543281
 100       -1.533940
 101       -1.462056
 102       -1.432103
 103       -1.412930
 104       -1.330659
 105       -1.201904
 106       -1.121178
 107       -1.064364
 108       -1.040637
 109       -0.491980
 110       -0.383476
 111       -0.289064
 112       -0.217787
 113        7.493397
 114        7.689265
 115        8.449618
 116        8.530310
 117        8.683942
 118        8.943156
 119        9.110101
 120        9.640560
 121        9.717630
 122        9.916706
 123        9.974724
 124       10.308992
 125       10.383872
 126       10.613730
 127       10.782888
 128       11.088204
 129       11.137670
 130       11.291335
 131       11.326332
 132       11.356498
 133       11.429537
 134       11.466064
 135       11.636432
 136       11.691367
 137       11.916266
 138       12.152720
 139       12.316980
 140       12.356163
 141       12.434924
 142       12.514273
 143       12.591566
 144       12.800702
 145       12.977271
 146       13.291619
 147       13.498660
 148       13.554933
 149       13.587889
 150       13.711502
 
  0.3742002E-15  0.1250000E+00  0.3742002E-15  0.2083333E-01
   1      -41.752164
   2      -41.748317
   3      -41.710372
   4      -41.707128
   5      -22.321674
   6      -22.221120
   7      -22.157786
   8      -22.111402
   9      -21.785477
  10      -21.768176
  11      -21.694152
  12      -21.634570
  13      -21.337858
  14      -21.238818
  15      -21.181361
  16      -21.140904
  17      -21.102100
  18      -21.067291
  19      -21.038913
  20      -21.012623
  21      -18.985636
  22      -18.936790
  23      -17.524943
  24      -17.508503
  25      -17.150636
  26      -17.107907
  27      -17.105364
  28      -17.090850
  29      -10.851395
  30      -10.600704
  31      -10.374169
  32      -10.301787
  33       -7.489480
  34       -7.364687
  35       -7.225437
  36       -7.140467
  37       -7.056415
  38       -6.869468
  39       -6.857816
  40       -6.794659
  41       -6.501379
  42       -6.423946
  43       -6.418677
  44       -6.371427
  45       -5.799741
  46       -5.690188
  47       -5.315603
  48       -5.162490
  49       -4.943923
  50       -4.851323
  51       -4.837506
  52       -4.723557
  53       -4.678547
  54       -4.610232
  55       -4.489937
  56       -4.475408
  57       -4.347117
  58       -4.280844
  59       -4.224987
  60       -4.139475
  61       -4.082331
  62       -3.925746
  63       -3.896065
  64       -3.604668
  65       -3.496144
  66       -3.455386
  67       -3.379460
  68       -3.343673
  69       -3.282401
  70       -3.265741
  71       -3.089221
  72       -3.081916
  73       -3.066210
  74       -2.926388
  75       -2.831069
  76       -2.749563
  77       -2.670353
  78       -2.628354
  79       -2.534341
  80       -2.482868
  81       -2.408900
  82       -2.402922
  83       -2.393240
  84       -2.324888
  85       -2.210054
  86       -2.175704
  87       -2.105434
  88       -2.082345
  89       -2.070463
  90       -1.941454
  91       -1.922677
  92       -1.852223
  93       -1.836425
  94       -1.811715
  95       -1.790975
  96       -1.681225
  97       -1.644462
  98       -1.638697
  99       -1.635713
 100       -1.541661
 101       -1.514607
 102       -1.474708
 103       -1.382862
 104       -1.283209
 105       -1.242462
 106       -1.202225
 107       -1.187518
 108       -1.037418
 109       -0.467117
 110       -0.335961
 111       -0.202657
 112       -0.193466
 113        7.629684
 114        7.981896
 115        8.579587
 116        8.654041
 117        8.884398
 118        9.039986
 119        9.100744
 120        9.806085
 121        9.822806
 122        9.892142
 123       10.057197
 124       10.301078
 125       10.563366
 126       10.609481
 127       10.754856
 128       10.876793
 129       10.934166
 130       11.166831
 131       11.182365
 132       11.367434
 133       11.526587
 134       11.608508
 135       11.658275
 136       11.769025
 137       11.954301
 138       12.117295
 139       12.276298
 140       12.314563
 141       12.379830
 142       12.483117
 143       12.647819
 144       12.807158
 145       12.976309
 146       13.048278
 147       13.090383
 148       13.332438
 149       13.558741
 150       13.582439
 
  0.3333333E+00  0.1250000E+00  0.3816392E-15  0.4166667E-01
   1      -41.752169
   2      -41.748305
   3      -41.710367
   4      -41.707144
   5      -22.317543
   6      -22.227478
   7      -22.162468
   8      -22.104979
   9      -21.780344
  10      -21.772627
  11      -21.692340
  12      -21.636281
  13      -21.335992
  14      -21.241663
  15      -21.181945
  16      -21.140117
  17      -21.102868
  18      -21.066933
  19      -21.039232
  20      -21.011419
  21      -18.985524
  22      -18.936799
  23      -17.525045
  24      -17.508735
  25      -17.150871
  26      -17.107237
  27      -17.105029
  28      -17.091405
  29      -10.852307
  30      -10.600490
  31      -10.373274
  32      -10.301697
  33       -7.478499
  34       -7.361267
  35       -7.231413
  36       -7.123591
  37       -7.067980
  38       -6.903903
  39       -6.856580
  40       -6.795389
  41       -6.488231
  42       -6.432749
  43       -6.416066
  44       -6.376883
  45       -5.769284
  46       -5.671025
  47       -5.250833
  48       -5.143584
  49       -4.980838
  50       -4.934353
  51       -4.848253
  52       -4.821382
  53       -4.719712
  54       -4.649057
  55       -4.470898
  56       -4.438595
  57       -4.289878
  58       -4.271213
  59       -4.242999
  60       -4.158703
  61       -4.048240
  62       -3.889011
  63       -3.729317
  64       -3.600475
  65       -3.513391
  66       -3.448617
  67       -3.440549
  68       -3.351152
  69       -3.259318
  70       -3.218982
  71       -3.207545
  72       -3.084674
  73       -2.963281
  74       -2.872412
  75       -2.835797
  76       -2.796273
  77       -2.752762
  78       -2.675498
  79       -2.585196
  80       -2.507462
  81       -2.444940
  82       -2.387449
  83       -2.360602
  84       -2.275954
  85       -2.214586
  86       -2.166644
  87       -2.092514
  88       -2.089891
  89       -2.078666
  90       -1.953686
  91       -1.915124
  92       -1.870348
  93       -1.834874
  94       -1.776020
  95       -1.764144
  96       -1.696245
  97       -1.644849
  98       -1.622809
  99       -1.612787
 100       -1.570101
 101       -1.519235
 102       -1.462268
 103       -1.402734
 104       -1.331647
 105       -1.234990
 106       -1.188813
 107       -1.155311
 108       -1.027949
 109       -0.469085
 110       -0.337217
 111       -0.204065
 112       -0.193579
 113        7.686474
 114        7.873353
 115        8.604165
 116        8.650604
 117        8.814158
 118        9.121530
 119        9.211701
 120        9.712582
 121        9.805871
 122        9.952944
 123       10.033757
 124       10.300622
 125       10.380739
 126       10.613238
 127       10.742588
 128       11.075216
 129       11.162066
 130       11.186828
 131       11.209438
 132       11.333892
 133       11.370070
 134       11.466923
 135       11.525018
 136       11.799747
 137       11.924219
 138       12.170324
 139       12.230542
 140       12.359616
 141       12.417028
 142       12.489212
 143       12.699798
 144       12.755807
 145       12.812761
 146       13.151029
 147       13.204944
 148       13.336464
 149       13.556016
 150       13.672852
 
  0.3742002E-15  0.2500000E+00  0.3742002E-15  0.2083333E-01
   1      -41.747011
   2      -41.743360
   3      -41.714973
   4      -41.711851
   5      -22.254655
   6      -22.167280
   7      -22.103355
   8      -22.062584
   9      -21.780231
  10      -21.768594
  11      -21.700330
  12      -21.655520
  13      -21.341162
  14      -21.285694
  15      -21.196643
  16      -21.195376
  17      -21.142617
  18      -21.111353
  19      -21.045492
  20      -21.016995
  21      -18.826690
  22      -18.782124
  23      -17.671564
  24      -17.666654
  25      -17.167245
  26      -17.166964
  27      -17.157456
  28      -17.134803
  29      -10.789999
  30      -10.545085
  31      -10.423211
  32      -10.320245
  33       -7.579053
  34       -7.402983
  35       -7.376288
  36       -7.314967
  37       -7.125056
  38       -6.965844
  39       -6.924216
  40       -6.775310
  41       -6.473014
  42       -6.426747
  43       -6.375921
  44       -6.339557
  45       -5.706697
  46       -5.386602
  47       -5.371420
  48       -5.050567
  49       -4.926870
  50       -4.811225
  51       -4.804994
  52       -4.690974
  53       -4.659468
  54       -4.560643
  55       -4.518767
  56       -4.390498
  57       -4.359721
  58       -4.248953
  59       -4.229807
  60       -4.153190
  61       -4.093073
  62       -3.841762
  63       -3.737836
  64       -3.676892
  65       -3.509054
  66       -3.452291
  67       -3.435930
  68       -3.362670
  69       -3.334849
  70       -3.257307
  71       -3.126938
  72       -3.011197
  73       -2.958966
  74       -2.948653
  75       -2.908062
  76       -2.763556
  77       -2.678876
  78       -2.546155
  79       -2.541083
  80       -2.477734
  81       -2.469638
  82       -2.384059
  83       -2.309451
  84       -2.274637
  85       -2.256390
  86       -2.199573
  87       -2.090650
  88       -2.087897
  89       -1.977224
  90       -1.936139
  91       -1.902013
  92       -1.839588
  93       -1.828069
  94       -1.762419
  95       -1.752353
  96       -1.743101
  97       -1.727394
  98       -1.672040
  99       -1.602132
 100       -1.584695
 101       -1.530090
 102       -1.489009
 103       -1.481940
 104       -1.361578
 105       -1.289062
 106       -1.230902
 107       -1.215318
 108       -1.127327
 109       -0.419562
 110       -0.222142
 111       -0.166206
 112       -0.082837
 113        8.157030
 114        8.424727
 115        8.775964
 116        8.904401
 117        9.367138
 118        9.414902
 119        9.476413
 120        9.909908
 121       10.015612
 122       10.030630
 123       10.250718
 124       10.344626
 125       10.552933
 126       10.674141
 127       10.769716
 128       10.814639
 129       10.959955
 130       11.105880
 131       11.117233
 132       11.269188
 133       11.272132
 134       11.605903
 135       11.691340
 136       11.879697
 137       11.927536
 138       12.032597
 139       12.113243
 140       12.188029
 141       12.370241
 142       12.408297
 143       12.593586
 144       12.689208
 145       12.721373
 146       12.753424
 147       13.078262
 148       13.204115
 149       13.329957
 150       13.658458
 
  0.3333333E+00  0.2500000E+00  0.3816392E-15  0.4166667E-01
   1      -41.747001
   2      -41.743352
   3      -41.714973
   4      -41.711853
   5      -22.251158
   6      -22.172365
   7      -22.107255
   8      -22.057363
   9      -21.776431
  10      -21.771841
  11      -21.698940
  12      -21.656823
  13      -21.340085
  14      -21.287010
  15      -21.197169
  16      -21.195140
  17      -21.142649
  18      -21.111271
  19      -21.046078
  20      -21.016087
  21      -18.826612
  22      -18.782082
  23      -17.671623
  24      -17.666719
  25      -17.167320
  26      -17.166767
  27      -17.158071
  28      -17.134187
  29      -10.790980
  30      -10.544817
  31      -10.422412
  32      -10.320035
  33       -7.562227
  34       -7.400077
  35       -7.381022
  36       -7.319691
  37       -7.118390
  38       -6.967959
  39       -6.956928
  40       -6.767812
  41       -6.459156
  42       -6.432543
  43       -6.403614
  44       -6.331079
  45       -5.649981
  46       -5.389805
  47       -5.293219
  48       -5.146841
  49       -4.988952
  50       -4.892502
  51       -4.742446
  52       -4.725989
  53       -4.627676
  54       -4.594029
  55       -4.517659
  56       -4.393179
  57       -4.304569
  58       -4.268742
  59       -4.199041
  60       -4.150826
  61       -4.028699
  62       -3.853506
  63       -3.708150
  64       -3.645191
  65       -3.552004
  66       -3.497929
  67       -3.452404
  68       -3.418778
  69       -3.223974
  70       -3.176150
  71       -3.111422
  72       -3.028935
  73       -2.983032
  74       -2.922382
  75       -2.870329
  76       -2.786277
  77       -2.716504
  78       -2.646397
  79       -2.543948
  80       -2.495497
  81       -2.485554
  82       -2.351479
  83       -2.333907
  84       -2.286862
  85       -2.251218
  86       -2.176815
  87       -2.097865
  88       -2.077192
  89       -1.995993
  90       -1.945768
  91       -1.908019
  92       -1.854556
  93       -1.827864
  94       -1.807838
  95       -1.754651
  96       -1.721891
  97       -1.665318
  98       -1.639813
  99       -1.631022
 100       -1.591771
 101       -1.537448
 102       -1.480110
 103       -1.417719
 104       -1.365094
 105       -1.296857
 106       -1.236569
 107       -1.229608
 108       -1.117973
 109       -0.420264
 110       -0.223036
 111       -0.166883
 112       -0.083176
 113        8.158870
 114        8.333157
 115        8.779431
 116        9.018907
 117        9.318414
 118        9.465668
 119        9.549549
 120        9.864883
 121       10.012607
 122       10.041808
 123       10.218636
 124       10.344177
 125       10.403179
 126       10.660898
 127       10.787452
 128       10.918543
 129       11.047828
 130       11.118860
 131       11.133026
 132       11.215564
 133       11.261315
 134       11.460978
 135       11.636638
 136       11.870342
 137       11.936272
 138       12.063665
 139       12.131626
 140       12.322698
 141       12.391320
 142       12.534292
 143       12.585411
 144       12.750022
 145       12.827855
 146       12.962377
 147       13.178713
 148       13.224696
 149       13.365038
 150       13.549837
 
  0.3742002E-15  0.3750000E+00  0.3742002E-15  0.2083333E-01
   1      -41.739368
   2      -41.736020
   3      -41.722016
   4      -41.718973
   5      -22.168044
   6      -22.111750
   7      -22.034496
   8      -22.007854
   9      -21.780036
  10      -21.776018
  11      -21.706194
  12      -21.682604
  13      -21.358627
  14      -21.343422
  15      -21.252398
  16      -21.242037
  17      -21.161265
  18      -21.149077
  19      -21.042975
  20      -21.024589
  21      -18.577875
  22      -18.540905
  23      -17.941318
  24      -17.930360
  25      -17.198960
  26      -17.190685
  27      -17.186997
  28      -17.166335
  29      -10.699459
  30      -10.505499
  31      -10.466532
  32      -10.352603
  33       -7.652295
  34       -7.526906
  35       -7.483002
  36       -7.482859
  37       -7.072172
  38       -7.000705
  39       -6.971517
  40       -6.820183
  41       -6.548400
  42       -6.514413
  43       -6.304639
  44       -6.190118
  45       -5.524063
  46       -5.376392
  47       -5.093742
  48       -5.020112
  49       -5.017354
  50       -4.879750
  51       -4.863141
  52       -4.714064
  53       -4.711003
  54       -4.563991
  55       -4.526922
  56       -4.428414
  57       -4.381024
  58       -4.274738
  59       -4.063532
  60       -3.965711
  61       -3.900478
  62       -3.764806
  63       -3.654469
  64       -3.637669
  65       -3.562465
  66       -3.492013
  67       -3.420845
  68       -3.339430
  69       -3.297187
  70       -3.286153
  71       -3.090369
  72       -3.011867
  73       -2.925863
  74       -2.831890
  75       -2.809942
  76       -2.745049
  77       -2.711730
  78       -2.638477
  79       -2.592980
  80       -2.518243
  81       -2.439910
  82       -2.427931
  83       -2.380235
  84       -2.342974
  85       -2.255366
  86       -2.202476
  87       -2.075509
  88       -2.051538
  89       -2.048015
  90       -1.921855
  91       -1.917559
  92       -1.865230
  93       -1.833193
  94       -1.810412
  95       -1.775454
  96       -1.713143
  97       -1.691003
  98       -1.635832
  99       -1.586864
 100       -1.579838
 101       -1.519413
 102       -1.510841
 103       -1.464926
 104       -1.420203
 105       -1.312017
 106       -1.264964
 107       -1.240878
 108       -1.194644
 109       -0.353174
 110       -0.193607
 111       -0.113173
 112       -0.041997
 113        8.727299
 114        8.863149
 115        9.027932
 116        9.253809
 117        9.621738
 118        9.657044
 119        9.886521
 120       10.019197
 121       10.226839
 122       10.232677
 123       10.409385
 124       10.435310
 125       10.632645
 126       10.675699
 127       10.692428
 128       10.994540
 129       10.996099
 130       11.085692
 131       11.241569
 132       11.396476
 133       11.411542
 134       11.559778
 135       11.699662
 136       11.718047
 137       11.817760
 138       11.926249
 139       12.137058
 140       12.227845
 141       12.259925
 142       12.344442
 143       12.505669
 144       12.726648
 145       12.748407
 146       12.787814
 147       12.935091
 148       13.090487
 149       13.200575
 150       13.452258
 
  0.3333333E+00  0.3750000E+00  0.3816392E-15  0.4166667E-01
   1      -41.739384
   2      -41.736033
   3      -41.722020
   4      -41.718980
   5      -22.165817
   6      -22.114656
   7      -22.037040
   8      -22.004734
   9      -21.778395
  10      -21.777698
  11      -21.705451
  12      -21.683401
  13      -21.358476
  14      -21.343617
  15      -21.252477
  16      -21.242077
  17      -21.161330
  18      -21.149106
  19      -21.043567
  20      -21.024103
  21      -18.577804
  22      -18.540883
  23      -17.941391
  24      -17.930405
  25      -17.198765
  26      -17.191233
  27      -17.187053
  28      -17.166065
  29      -10.700305
  30      -10.505144
  31      -10.466227
  32      -10.352299
  33       -7.639782
  34       -7.528304
  35       -7.486503
  36       -7.479327
  37       -7.060589
  38       -7.017758
  39       -6.970819
  40       -6.814699
  41       -6.548491
  42       -6.526502
  43       -6.333732
  44       -6.196523
  45       -5.473677
  46       -5.315353
  47       -5.213986
  48       -5.081105
  49       -4.960032
  50       -4.915827
  51       -4.753562
  52       -4.741614
  53       -4.692740
  54       -4.604031
  55       -4.496745
  56       -4.427792
  57       -4.344373
  58       -4.233175
  59       -4.105476
  60       -3.954091
  61       -3.889376
  62       -3.819146
  63       -3.746431
  64       -3.670419
  65       -3.626129
  66       -3.522976
  67       -3.404675
  68       -3.225708
  69       -3.174992
  70       -3.153669
  71       -3.074029
  72       -3.040910
  73       -2.951735
  74       -2.872975
  75       -2.851877
  76       -2.726078
  77       -2.689128
  78       -2.665350
  79       -2.596080
  80       -2.570391
  81       -2.523347
  82       -2.451950
  83       -2.313073
  84       -2.276500
  85       -2.256732
  86       -2.154366
  87       -2.121991
  88       -2.089813
  89       -2.064484
  90       -1.991207
  91       -1.883652
  92       -1.875617
  93       -1.853561
  94       -1.788502
  95       -1.748928
  96       -1.739699
  97       -1.695224
  98       -1.661171
  99       -1.590244
 100       -1.547699
 101       -1.522275
 102       -1.471120
 103       -1.436925
 104       -1.421473
 105       -1.307339
 106       -1.262076
 107       -1.241739
 108       -1.204959
 109       -0.353844
 110       -0.194236
 111       -0.113508
 112       -0.042035
 113        8.680464
 114        8.797287
 115        9.023345
 116        9.428762
 117        9.617050
 118        9.687380
 119        9.875413
 120        9.964797
 121       10.236201
 122       10.285821
 123       10.356152
 124       10.469540
 125       10.525544
 126       10.731412
 127       10.768990
 128       10.961592
 129       10.982317
 130       11.040286
 131       11.172452
 132       11.381912
 133       11.408960
 134       11.480989
 135       11.731786
 136       11.820036
 137       11.895448
 138       11.945125
 139       12.164611
 140       12.193517
 141       12.255213
 142       12.310906
 143       12.560598
 144       12.674882
 145       12.775375
 146       12.927700
 147       12.960764
 148       13.152503
 149       13.218835
 150       13.540971
 
  0.3742002E-15  0.5000000E+00  0.3742002E-15  0.1041667E-01
   1      -41.730976
   2      -41.730174
   3      -41.727876
   4      -41.727044
   5      -22.105936
   6      -22.105806
   7      -21.990515
   8      -21.990379
   9      -21.784476
  10      -21.784044
  11      -21.701984
  12      -21.701494
  13      -21.372194
  14      -21.371774
  15      -21.272372
  16      -21.271904
  17      -21.162993
  18      -21.162876
  19      -21.034369
  20      -21.034269
  21      -18.267433
  22      -18.267375
  23      -18.241796
  24      -18.241740
  25      -17.201367
  26      -17.201080
  27      -17.189287
  28      -17.188995
  29      -10.597469
  30      -10.597378
  31      -10.402685
  32      -10.402585
  33       -7.640093
  34       -7.640053
  35       -7.520843
  36       -7.520768
  37       -7.065572
  38       -7.065342
  39       -6.882470
  40       -6.882249
  41       -6.569042
  42       -6.568994
  43       -6.196406
  44       -6.196384
  45       -5.276267
  46       -5.276171
  47       -5.229856
  48       -5.229750
  49       -4.927948
  50       -4.927727
  51       -4.763191
  52       -4.763030
  53       -4.754534
  54       -4.754488
  55       -4.447581
  56       -4.447387
  57       -4.274925
  58       -4.274825
  59       -3.986700
  60       -3.986679
  61       -3.730125
  62       -3.729826
  63       -3.607307
  64       -3.607236
  65       -3.502034
  66       -3.501733
  67       -3.460094
  68       -3.460010
  69       -3.192441
  70       -3.192235
  71       -2.995504
  72       -2.995460
  73       -2.886275
  74       -2.886174
  75       -2.791597
  76       -2.791545
  77       -2.704184
  78       -2.704100
  79       -2.625698
  80       -2.625676
  81       -2.519557
  82       -2.519515
  83       -2.322587
  84       -2.322549
  85       -2.247935
  86       -2.247889
  87       -2.041379
  88       -2.041345
  89       -1.944047
  90       -1.943835
  91       -1.873412
  92       -1.873244
  93       -1.846156
  94       -1.846097
  95       -1.740862
  96       -1.740760
  97       -1.660296
  98       -1.660236
  99       -1.581507
 100       -1.581446
 101       -1.557957
 102       -1.557880
 103       -1.458787
 104       -1.458546
 105       -1.265558
 106       -1.265480
 107       -1.229761
 108       -1.229697
 109       -0.266162
 110       -0.266095
 111       -0.060398
 112       -0.060324
 113        9.018873
 114        9.019012
 115        9.349654
 116        9.349792
 117        9.587074
 118        9.587143
 119       10.040698
 120       10.040732
 121       10.348857
 122       10.348892
 123       10.462435
 124       10.462515
 125       10.571477
 126       10.571512
 127       10.883313
 128       10.883338
 129       11.060798
 130       11.060869
 131       11.419066
 132       11.419111
 133       11.568936
 134       11.569527
 135       11.765703
 136       11.767138
 137       11.831063
 138       11.831700
 139       12.263736
 140       12.271936
 141       12.552220
 142       12.564238
 143       12.568926
 144       12.630420
 145       12.796084
 146       12.811709
 147       12.996605
 148       13.054775
 149       13.282722
 150       13.542363
 
  0.3333333E+00  0.5000000E+00  0.3816392E-15  0.2083333E-01
   1      -41.730971
   2      -41.730169
   3      -41.727876
   4      -41.727044
   5      -22.105866
   6      -22.105736
   7      -21.990505
   8      -21.990368
   9      -21.784573
  10      -21.784142
  11      -21.701965
  12      -21.701474
  13      -21.372051
  14      -21.371631
  15      -21.272385
  16      -21.271917
  17      -21.163046
  18      -21.162929
  19      -21.034402
  20      -21.034302
  21      -18.267379
  22      -18.267321
  23      -18.241738
  24      -18.241681
  25      -17.201298
  26      -17.201012
  27      -17.189454
  28      -17.189163
  29      -10.597770
  30      -10.597679
  31      -10.402344
  32      -10.402244
  33       -7.635921
  34       -7.635881
  35       -7.519895
  36       -7.519818
  37       -7.058916
  38       -7.058681
  39       -6.881139