Automatically generated mesh
      35
Reciprocal lattice
    0.00000000000000    0.00000000000000    0.00000000000000             1
    0.33333333333333    0.00000000000000    0.00000000000000             2
    0.00000000000000    0.12500000000000    0.00000000000000             2
    0.33333333333333    0.12500000000000    0.00000000000000             4
    0.00000000000000    0.25000000000000    0.00000000000000             2
    0.33333333333333    0.25000000000000    0.00000000000000             4
    0.00000000000000    0.37500000000000    0.00000000000000             2
    0.33333333333333    0.37500000000000    0.00000000000000             4
    0.00000000000000    0.50000000000000    0.00000000000000             1
    0.33333333333333    0.50000000000000    0.00000000000000             2
    0.00000000000000    0.00000000000000    0.25000000000000             2
    0.33333333333333    0.00000000000000    0.25000000000000             2
   -0.33333333333333    0.00000000000000    0.25000000000000             2
    0.00000000000000    0.12500000000000    0.25000000000000             4
    0.33333333333333    0.12500000000000    0.25000000000000             4
   -0.33333333333333    0.12500000000000    0.25000000000000             4
    0.00000000000000    0.25000000000000    0.25000000000000             4
    0.33333333333333    0.25000000000000    0.25000000000000             4
   -0.33333333333333    0.25000000000000    0.25000000000000             4
    0.00000000000000    0.37500000000000    0.25000000000000             4
    0.33333333333333    0.37500000000000    0.25000000000000             4
   -0.33333333333333    0.37500000000000    0.25000000000000             4
    0.00000000000000    0.50000000000000    0.25000000000000             2
    0.33333333333333    0.50000000000000    0.25000000000000             2
   -0.33333333333333    0.50000000000000    0.25000000000000             2
    0.00000000000000    0.00000000000000    0.50000000000000             1
    0.33333333333333    0.00000000000000    0.50000000000000             2
    0.00000000000000    0.12500000000000    0.50000000000000             2
    0.33333333333333    0.12500000000000    0.50000000000000             4
    0.00000000000000    0.25000000000000    0.50000000000000             2
    0.33333333333333    0.25000000000000    0.50000000000000             4
    0.00000000000000    0.37500000000000    0.50000000000000             2
    0.33333333333333    0.37500000000000    0.50000000000000             4
    0.00000000000000    0.50000000000000    0.50000000000000             1
    0.33333333333333    0.50000000000000    0.50000000000000             2
Tetrahedra
       288    0.00173611111111
         2         1         2         4        11
         2         1         3         4        11
         2         3         4        11        14
         2         2         4        11        12
         2         4        11        12        15
         2         4        11        14        15
         2         2         2         4        12
         2         2         4         4        12
         2         4         4        12        15
         2         2         4        12        13
         2         4        12        13        16
         2         4        12        15        16
         2         1         2         3        13
         2         2         3         4        13
         2         3         4        13        16
         2         1         3        11        13
         2         3        11        13        14
         2         3        13        14        16
         2         3         4         6        14
         2         3         5         6        14
         2         5         6        14        17
         2         4         6        14        15
         2         6        14        15        18
         2         6        14        17        18
         2         4         4         6        15
         2         4         6         6        15
         2         6         6        15        18
         2         4         6        15        16
         2         6        15        16        19
         2         6        15        18        19
         2         3         4         5        16
         2         4         5         6        16
         2         5         6        16        19
         2         3         5        14        16
         2         5        14        16        17
         2         5        16        17        19
         2         5         6         8        17
         2         5         7         8        17
         2         7         8        17        20
         2         6         8        17        18
         2         8        17        18        21
         2         8        17        20        21
         2         6         6         8        18
         2         6         8         8        18
         2         8         8        18        21
         2         6         8        18        19
         2         8        18        19        22
         2         8        18        21        22
         2         5         6         7        19
         2         6         7         8        19
         2         7         8        19        22
         2         5         7        17        19
         2         7        17        19        20
         2         7        19        20        22
         2         7         8        10        20
         2         7         9        10        20
         2         9        10        20        23
         2         8        10        20        21
         2        10        20        21        24
         2        10        20        23        24
         2         8         8        10        21
         2         8        10        10        21
         2        10        10        21        24
         2         8        10        21        22
         2        10        21        22        25
         2        10        21        24        25
         2         7         8         9        22
         2         8         9        10        22
         2         9        10        22        25
         2         7         9        20        22
         2         9        20        22        23
         2         9        22        23        25
         2         8         9        10        23
         2         7         8         9        23
         2         7         8        20        23
         2         8        10        23        24
         2         8        21        23        24
         2         8        20        21        23
         2         8        10        10        24
         2         8         8        10        24
         2         8         8        21        24
         2         8        10        24        25
         2         8        22        24        25
         2         8        21        22        24
         2         7         9        10        25
         2         7         8        10        25
         2         7         8        22        25
         2         7         9        23        25
         2         7        20        23        25
         2         7        20        22        25
         2         6         7         8        20
         2         5         6         7        20
         2         5         6        17        20
         2         6         8        20        21
         2         6        18        20        21
         2         6        17        18        20
         2         6         8         8        21
         2         6         6         8        21
         2         6         6        18        21
         2         6         8        21        22
         2         6        19        21        22
         2         6        18        19        21
         2         5         7         8        22
         2         5         6         8        22
         2         5         6        19        22
         2         5         7        20        22
         2         5        17        20        22
         2         5        17        19        22
         2         4         5         6        17
         2         3         4         5        17
         2         3         4        14        17
         2         4         6        17        18
         2         4        15        17        18
         2         4        14        15        17
         2         4         6         6        18
         2         4         4         6        18
         2         4         4        15        18
         2         4         6        18        19
         2         4        16        18        19
         2         4        15        16        18
         2         3         5         6        19
         2         3         4         6        19
         2         3         4        16        19
         2         3         5        17        19
         2         3        14        17        19
         2         3        14        16        19
         2         2         3         4        14
         2         1         2         3        14
         2         1         2        11        14
         2         2         4        14        15
         2         2        12        14        15
         2         2        11        12        14
         2         2         4         4        15
         2         2         2         4        15
         2         2         2        12        15
         2         2         4        15        16
         2         2        13        15        16
         2         2        12        13        15
         2         1         3         4        16
         2         1         2         4        16
         2         1         2        13        16
         2         1         3        14        16
         2         1        11        14        16
         2         1        11        13        16
         2        11        12        15        26
         2        11        14        15        26
         2        14        15        26        28
         2        12        15        26        27
         2        15        26        27        29
         2        15        26        28        29
         2        12        13        16        27
         2        12        15        16        27
         2        15        16        27        29
         2        13        16        27        27
         2        16        27        27        29
         2        16        27        29        29
         2        11        13        14        27
         2        13        14        16        27
         2        14        16        27        29
         2        11        14        26        27
         2        14        26        27        28
         2        14        27        28        29
         2        14        15        18        28
         2        14        17        18        28
         2        17        18        28        30
         2        15        18        28        29
         2        18        28        29        31
         2        18        28        30        31
         2        15        16        19        29
         2        15        18        19        29
         2        18        19        29        31
         2        16        19        29        29
         2        19        29        29        31
         2        19        29        31        31
         2        14        16        17        29
         2        16        17        19        29
         2        17        19        29        31
         2        14        17        28        29
         2        17        28        29        30
         2        17        29        30        31
         2        17        18        21        30
         2        17        20        21        30
         2        20        21        30        32
         2        18        21        30        31
         2        21        30        31        33
         2        21        30        32        33
         2        18        19        22        31
         2        18        21        22        31
         2        21        22        31        33
         2        19        22        31        31
         2        22        31        31        33
         2        22        31        33        33
         2        17        19        20        31
         2        19        20        22        31
         2        20        22        31        33
         2        17        20        30        31
         2        20        30        31        32
         2        20        31        32        33
         2        20        21        24        32
         2        20        23        24        32
         2        23        24        32        34
         2        21        24        32        33
         2        24        32        33        35
         2        24        32        34        35
         2        21        22        25        33
         2        21        24        25        33
         2        24        25        33        35
         2        22        25        33        33
         2        25        33        33        35
         2        25        33        35        35
         2        20        22        23        33
         2        22        23        25        33
         2        23        25        33        35
         2        20        23        32        33
         2        23        32        33        34
         2        23        33        34        35
         2        21        23        24        34
         2        20        21        23        34
         2        20        21        32        34
         2        21        24        34        35
         2        21        33        34        35
         2        21        32        33        34
         2        22        24        25        35
         2        21        22        24        35
         2        21        22        33        35
         2        22        25        35        35
         2        22        33        35        35
         2        22        33        33        35
         2        20        23        25        35
         2        20        22        25        35
         2        20        22        33        35
         2        20        23        34        35
         2        20        32        34        35
         2        20        32        33        35
         2        18        20        21        32
         2        17        18        20        32
         2        17        18        30        32
         2        18        21        32        33
         2        18        31        32        33
         2        18        30        31        32
         2        19        21        22        33
         2        18        19        21        33
         2        18        19        31        33
         2        19        22        33        33
         2        19        31        33        33
         2        19        31        31        33
         2        17        20        22        33
         2        17        19        22        33
         2        17        19        31        33
         2        17        20        32        33
         2        17        30        32        33
         2        17        30        31        33
         2        15        17        18        30
         2        14        15        17        30
         2        14        15        28        30
         2        15        18        30        31
         2        15        29        30        31
         2        15        28        29        30
         2        16        18        19        31
         2        15        16        18        31
         2        15        16        29        31
         2        16        19        31        31
         2        16        29        31        31
         2        16        29        29        31
         2        14        17        19        31
         2        14        16        19        31
         2        14        16        29        31
         2        14        17        30        31
         2        14        28        30        31
         2        14        28        29        31
         2        12        14        15        28
         2        11        12        14        28
         2        11        12        26        28
         2        12        15        28        29
         2        12        27        28        29
         2        12        26        27        28
         2        13        15        16        29
         2        12        13        15        29
         2        12        13        27        29
         2        13        16        29        29
         2        13        27        29        29
         2        13        27        27        29
         2        11        14        16        29
         2        11        13        16        29
         2        11        13        27        29
         2        11        14        28        29
         2        11        26        28        29
         2        11        26        27        29
