       N       E                     dE             d eps       ncg     rms          rms(c)
DAV:   1     0.147827886919E+04    0.14783E+04   -0.12481E+05 10560   0.148E+03
DAV:   2    -0.246400759773E+03   -0.17247E+04   -0.16684E+04 12180   0.370E+02
DAV:   3    -0.363251494352E+03   -0.11685E+03   -0.11605E+03 12834   0.113E+02
DAV:   4    -0.365425002975E+03   -0.21735E+01   -0.21644E+01 12876   0.181E+01
DAV:   5    -0.365474966763E+03   -0.49964E-01   -0.49869E-01 12984   0.268E+00    0.305E+01
RMM:   6    -0.343586022387E+03    0.21889E+02   -0.79087E+01 12302   0.194E+01    0.119E+01
RMM:   7    -0.340812501836E+03    0.27735E+01   -0.59880E+00 14902   0.591E+00    0.663E+00
RMM:   8    -0.340500528716E+03    0.31197E+00   -0.13599E+00 13467   0.336E+00    0.107E+00
RMM:   9    -0.340472996882E+03    0.27532E-01   -0.11917E-01 14177   0.112E+00    0.438E-01
RMM:  10    -0.340459589417E+03    0.13407E-01   -0.42535E-02 14042   0.470E-01    0.209E-01
RMM:  11    -0.340453958335E+03    0.56311E-02   -0.17609E-02 13642   0.310E-01    0.138E-01
RMM:  12    -0.340452990958E+03    0.96738E-03   -0.58487E-03 14155   0.177E-01    0.756E-02
RMM:  13    -0.340452867252E+03    0.12371E-03   -0.96788E-04 13293   0.880E-02    0.159E-02
RMM:  14    -0.340452870188E+03   -0.29358E-05   -0.93300E-05  9164   0.313E-02
   1 F= -.34045287E+03 E0= -.34045287E+03  d E =0.000000E+00
