 vasp.5.3.2 13Sep12 (build Sep 19 2012 13:12:15) complex                         
 executed on              unknown date 2013.05.14  02:11:59
 running on   48 total cores
 distrk:  each k-point on   48 cores,    1 groups
 distr:  one band on NCORES_PER_BAND=   8 cores,    6 groups


--------------------------------------------------------------------------------------------------------


 INCAR:
 POTCAR:  PAW_PBE Be 06Sep2000                    
 POTCAR:  PAW_PBE C 08Apr2002                     
 POTCAR:  PAW_PBE F 08Apr2002                     
 POTCAR:  PAW_PBE H 15Jun2001                     
 POTCAR:  PAW_PBE Li_sv 23Jan2001                 
 POTCAR:  PAW_PBE N 08Apr2002                     
 POTCAR:  PAW_PBE O 08Apr2002                     
 POTCAR:  PAW_PBE Be 06Sep2000                    
   VRHFIN =Be: s2p0                                                             
   LEXCH  = PE                                                                  
   EATOM  =    27.4890 eV,    2.0204 Ry                                         
                                                                                
   TITEL  = PAW_PBE Be 06Sep2000                                                
   LULTRA =        F    use ultrasoft PP ?                                      
   IUNSCR =        1    unscreen: 0-lin 1-nonlin 2-no                           
   RPACOR =    1.580    partial core radius                                     
   POMASS =    9.013; ZVAL   =    2.000    mass and valenz                      
   RCORE  =    1.900    outmost cutoff radius                                   
   RWIGS  =    1.880; RWIGS  =     .995    wigner-seitz radius (au A)           
   ENMAX  =  247.544; ENMIN  =  185.658 eV                                      
   ICORE  =        2    local potential                                         
   LCOR   =        T    correct aug charges                                     
   LPAW   =        T    paw PP                                                  
   EAUG   =  318.781                                                            
   DEXC   =     .000                                                            
   RMAX   =    2.931    core radius for proj-oper                               
   RAUG   =    1.300    factor for augmentation sphere                          
   RDEP   =    2.003    radius for radial grids                                 
   QCUT   =   -4.265; QGAM   =    8.531    optimization parameters              
                                                                                
   Description                                                                  
     l     E      TYP  RCUT    TYP  RCUT                                        
     0   .000     23  1.900                                                     
     0  2.000     23  1.900                                                     
     1   .000     23  1.900                                                     
     1  2.000     23  1.900                                                     
     2   .000     15  1.500                                                     
  local pseudopotential read in
  partial core-charges read in
  atomic valenz-charges read in
  non local Contribution for L= 0  read in
    real space projection operators read in
  non local Contribution for L= 0  read in
    real space projection operators read in
  non local Contribution for L= 1  read in
    real space projection operators read in
  non local Contribution for L= 1  read in
    real space projection operators read in
    PAW grid and wavefunctions read in
 
   number of l-projection  operators is LMAX  = 4
   number of lm-projection operators is LMMAX = 8
 
 POTCAR:  PAW_PBE C 08Apr2002                     
   VRHFIN =C: s2p2                                                              
   LEXCH  = PE                                                                  
   EATOM  =   147.1560 eV,   10.8157 Ry                                         
                                                                                
   TITEL  = PAW_PBE C 08Apr2002                                                 
   LULTRA =        F    use ultrasoft PP ?                                      
   IUNSCR =        0    unscreen: 0-lin 1-nonlin 2-no                           
   RPACOR =     .000    partial core radius                                     
   POMASS =   12.011; ZVAL   =    4.000    mass and valenz                      
   RCORE  =    1.500    outmost cutoff radius                                   
   RWIGS  =    1.630; RWIGS  =     .863    wigner-seitz radius (au A)           
   ENMAX  =  400.000; ENMIN  =  300.000 eV                                      
   ICORE  =        2    local potential                                         
   LCOR   =        T    correct aug charges                                     
   LPAW   =        T    paw PP                                                  
   EAUG   =  644.873                                                            
   DEXC   =     .000                                                            
   RMAX   =    2.266    core radius for proj-oper                               
   RAUG   =    1.300    factor for augmentation sphere                          
   RDEP   =    1.501    radius for radial grids                                 
   RDEPT  =    1.300    core radius for aug-charge                              
   QCUT   =   -5.516; QGAM   =   11.032    optimization parameters              
                                                                                
   Description                                                                  
     l     E      TYP  RCUT    TYP  RCUT                                        
     0   .000     23  1.200                                                     
     0   .000     23  1.200                                                     
     1   .000     23  1.500                                                     
     1  2.500     23  1.500                                                     
     2   .000      7  1.500                                                     
  local pseudopotential read in
  atomic valenz-charges read in
  non local Contribution for L= 0  read in
    real space projection operators read in
  non local Contribution for L= 0  read in
    real space projection operators read in
  non local Contribution for L= 1  read in
    real space projection operators read in
  non local Contribution for L= 1  read in
    real space projection operators read in
    PAW grid and wavefunctions read in
 
   number of l-projection  operators is LMAX  = 4
   number of lm-projection operators is LMMAX = 8
 
 POTCAR:  PAW_PBE F 08Apr2002                     
   VRHFIN =F: s2p5                                                              
   LEXCH  = PE                                                                  
   EATOM  =   659.4942 eV,   48.4715 Ry                                         
                                                                                
   TITEL  = PAW_PBE F 08Apr2002                                                 
   LULTRA =        F    use ultrasoft PP ?                                      
   IUNSCR =        0    unscreen: 0-lin 1-nonlin 2-no                           
   RPACOR =     .000    partial core radius                                     
   POMASS =   18.998; ZVAL   =    7.000    mass and valenz                      
   RCORE  =    1.520    outmost cutoff radius                                   
   RWIGS  =    1.500; RWIGS  =     .794    wigner-seitz radius (au A)           
   ENMAX  =  400.000; ENMIN  =  300.000 eV                                      
   ICORE  =        2    local potential                                         
   LCOR   =        T    correct aug charges                                     
   LPAW   =        T    paw PP                                                  
   EAUG   =  613.614                                                            
   DEXC   =     .000                                                            
   RMAX   =    2.254    core radius for proj-oper                               
   RAUG   =    1.300    factor for augmentation sphere                          
   RDEP   =    1.539    radius for radial grids                                 
   QCUT   =   -5.545; QGAM   =   11.091    optimization parameters              
                                                                                
   Description                                                                  
     l     E      TYP  RCUT    TYP  RCUT                                        
     0   .000     23  1.200                                                     
     0  -.700     23  1.200                                                     
     1   .000     23  1.520                                                     
     1   .100     23  1.520                                                     
     2   .000      7  1.500                                                     
  local pseudopotential read in
  atomic valenz-charges read in
  non local Contribution for L= 0  read in
    real space projection operators read in
  non local Contribution for L= 0  read in
    real space projection operators read in
  non local Contribution for L= 1  read in
    real space projection operators read in
  non local Contribution for L= 1  read in
    real space projection operators read in
    PAW grid and wavefunctions read in
 
   number of l-projection  operators is LMAX  = 4
   number of lm-projection operators is LMMAX = 8
 
 POTCAR:  PAW_PBE H 15Jun2001                     
   VRHFIN =H: ultrasoft test                                                    
   LEXCH  = PE                                                                  
   EATOM  =    12.4884 eV,     .9179 Ry                                         
                                                                                
   TITEL  = PAW_PBE H 15Jun2001                                                 
   LULTRA =        F    use ultrasoft PP ?                                      
   IUNSCR =        0    unscreen: 0-lin 1-nonlin 2-no                           
   RPACOR =     .000    partial core radius                                     
   POMASS =    1.000; ZVAL   =    1.000    mass and valenz                      
   RCORE  =    1.100    outmost cutoff radius                                   
   RWIGS  =     .700; RWIGS  =     .370    wigner-seitz radius (au A)           
   ENMAX  =  250.000; ENMIN  =  200.000 eV                                      
   RCLOC  =     .701    cutoff for local pot                                    
   LCOR   =        T    correct aug charges                                     
   LPAW   =        T    paw PP                                                  
   EAUG   =  400.000                                                            
   RMAX   =    2.174    core radius for proj-oper                               
   RAUG   =    1.200    factor for augmentation sphere                          
   RDEP   =    1.112    radius for radial grids                                 
   QCUT   =   -5.749; QGAM   =   11.498    optimization parameters              
                                                                                
   Description                                                                  
     l     E      TYP  RCUT    TYP  RCUT                                        
     0   .000     23  1.100                                                     
     0   .500     23  1.100                                                     
     1  -.300     23  1.100                                                     
  local pseudopotential read in
  atomic valenz-charges read in
  non local Contribution for L= 0  read in
    real space projection operators read in
  non local Contribution for L= 0  read in
    real space projection operators read in
  non local Contribution for L= 1  read in
    real space projection operators read in
    PAW grid and wavefunctions read in
 
   number of l-projection  operators is LMAX  = 3
   number of lm-projection operators is LMMAX = 5
 
 POTCAR:  PAW_PBE Li_sv 23Jan2001                 
   VRHFIN =Li: 1s2s2p                                                           
   LEXCH  = PE                                                                  
   EATOM  =   202.7858 eV,   14.9043 Ry                                         
                                                                                
   TITEL  = PAW_PBE Li_sv 23Jan2001                                             
   LULTRA =        F    use ultrasoft PP ?                                      
   IUNSCR =        0    unscreen: 0-lin 1-nonlin 2-no                           
   RPACOR =     .000    partial core radius                                     
   POMASS =    7.010; ZVAL   =    3.000    mass and valenz                      
   RCORE  =    2.050    outmost cutoff radius                                   
   RWIGS  =    2.050; RWIGS  =    1.085    wigner-seitz radius (au A)           
   ENMAX  =  271.649; ENMIN  =  203.737 eV                                      
   ICORE  =        2    local potential                                         
   LCOR   =        T    correct aug charges                                     
   LPAW   =        T    paw PP                                                  
   EAUG   =  428.394                                                            
   RMAX   =    2.797    core radius for proj-oper                               
   RAUG   =    1.300    factor for augmentation sphere                          
   RDEP   =    2.094    radius for radial grids                                 
   RDEPT  =    1.550    core radius for aug-charge                              
   QCUT   =   -4.468; QGAM   =    8.937    optimization parameters              
                                                                                
   Description                                                                  
     l     E      TYP  RCUT    TYP  RCUT                                        
     0   .000     23  1.550                                                     
     0   .000     23  2.050                                                     
     0   .000     23  1.550                                                     
     0   .000     23  2.050                                                     
     1  -.200     23  2.050                                                     
     1  1.500     23  2.050                                                     
     2   .000      7  1.550                                                     
  local pseudopotential read in
  atomic valenz-charges read in
  non local Contribution for L= 0  read in
    real space projection operators read in
  non local Contribution for L= 0  read in
    real space projection operators read in
  non local Contribution for L= 1  read in
    real space projection operators read in
  non local Contribution for L= 1  read in
    real space projection operators read in
    PAW grid and wavefunctions read in
 
   number of l-projection  operators is LMAX  = 4
   number of lm-projection operators is LMMAX = 8
 
 POTCAR:  PAW_PBE N 08Apr2002                     
   VRHFIN =N: s2p3                                                              
   LEXCH  = PE                                                                  
   EATOM  =   264.5486 eV,   19.4438 Ry                                         
                                                                                
   TITEL  = PAW_PBE N 08Apr2002                                                 
   LULTRA =        F    use ultrasoft PP ?                                      
   IUNSCR =        0    unscreen: 0-lin 1-nonlin 2-no                           
   RPACOR =     .000    partial core radius                                     
   POMASS =   14.001; ZVAL   =    5.000    mass and valenz                      
   RCORE  =    1.500    outmost cutoff radius                                   
   RWIGS  =    1.400; RWIGS  =     .741    wigner-seitz radius (au A)           
   ENMAX  =  400.000; ENMIN  =  300.000 eV                                      
   ICORE  =        2    local potential                                         
   LCOR   =        T    correct aug charges                                     
   LPAW   =        T    paw PP                                                  
   EAUG   =  627.112                                                            
   DEXC   =     .000                                                            
   RMAX   =    2.247    core radius for proj-oper                               
   RAUG   =    1.300    factor for augmentation sphere                          
   RDEP   =    1.514    radius for radial grids                                 
   QCUT   =   -5.562; QGAM   =   11.124    optimization parameters              
                                                                                
   Description                                                                  
     l     E      TYP  RCUT    TYP  RCUT                                        
     0   .000     23  1.200                                                     
     0   .000     23  1.200                                                     
     1   .000     23  1.500                                                     
     1   .700     23  1.500                                                     
     2   .000      7  1.500                                                     
  local pseudopotential read in
  atomic valenz-charges read in
  non local Contribution for L= 0  read in
    real space projection operators read in
  non local Contribution for L= 0  read in
    real space projection operators read in
  non local Contribution for L= 1  read in
    real space projection operators read in
  non local Contribution for L= 1  read in
    real space projection operators read in
    PAW grid and wavefunctions read in
 
   number of l-projection  operators is LMAX  = 4
   number of lm-projection operators is LMMAX = 8
 
 POTCAR:  PAW_PBE O 08Apr2002                     
   VRHFIN =O: s2p4                                                              
   LEXCH  = PE                                                                  
   EATOM  =   432.3788 eV,   31.7789 Ry                                         
                                                                                
   TITEL  = PAW_PBE O 08Apr2002                                                 
   LULTRA =        F    use ultrasoft PP ?                                      
   IUNSCR =        0    unscreen: 0-lin 1-nonlin 2-no                           
   RPACOR =     .000    partial core radius                                     
   POMASS =   16.000; ZVAL   =    6.000    mass and valenz                      
   RCORE  =    1.520    outmost cutoff radius                                   
   RWIGS  =    1.550; RWIGS  =     .820    wigner-seitz radius (au A)           
   ENMAX  =  400.000; ENMIN  =  300.000 eV                                      
   ICORE  =        2    local potential                                         
   LCOR   =        T    correct aug charges                                     
   LPAW   =        T    paw PP                                                  
   EAUG   =  605.392                                                            
   DEXC   =     .000                                                            
   RMAX   =    2.264    core radius for proj-oper                               
   RAUG   =    1.300    factor for augmentation sphere                          
   RDEP   =    1.550    radius for radial grids                                 
   QCUT   =   -5.520; QGAM   =   11.041    optimization parameters              
                                                                                
   Description                                                                  
     l     E      TYP  RCUT    TYP  RCUT                                        
     0   .000     23  1.200                                                     
     0  -.700     23  1.200                                                     
     1   .000     23  1.520                                                     
     1   .600     23  1.520                                                     
     2   .000      7  1.500                                                     
  local pseudopotential read in
  atomic valenz-charges read in
  non local Contribution for L= 0  read in
    real space projection operators read in
  non local Contribution for L= 0  read in
    real space projection operators read in
  non local Contribution for L= 1  read in
    real space projection operators read in
  non local Contribution for L= 1  read in
    real space projection operators read in
    PAW grid and wavefunctions read in
 
   number of l-projection  operators is LMAX  = 4
   number of lm-projection operators is LMMAX = 8
 

 ----------------------------------------------------------------------------- 
|                                                                             |
|  ADVICE TO THIS USER RUNNING 'VASP/VAMP'   (HEAR YOUR MASTER'S VOICE ...):  |
|                                                                             |
|      You have a (more or less) 'large supercell' and for larger cells       |
|      it might be more efficient to use real space projection opertators     |
|      So try LREAL= Auto  in the INCAR   file.                               |
|      Mind: At the moment your POTCAR file does not contain real space       |
|       projectors, and has to be modified,  BUT if you                       |
|      want to do an extremely  accurate calculation you might also keep the  |
|      reciprocal projection scheme          (i.e. LREAL=.FALSE.)             |
|                                                                             |
 ----------------------------------------------------------------------------- 

PAW_PBE Be 06Sep2000                    :
 energy of atom  1       EATOM=  -27.4890
 kinetic energy error for atom=    0.0001 (will be added to EATOM!!)
PAW_PBE C 08Apr2002                     :
 energy of atom  2       EATOM= -147.1560
 kinetic energy error for atom=    0.0071 (will be added to EATOM!!)
PAW_PBE F 08Apr2002                     :
 energy of atom  3       EATOM= -659.4942
 kinetic energy error for atom=    0.0323 (will be added to EATOM!!)
PAW_PBE H 15Jun2001                     :
 energy of atom  4       EATOM=  -12.4884
 kinetic energy error for atom=    0.0014 (will be added to EATOM!!)
PAW_PBE Li_sv 23Jan2001                 :
 energy of atom  5       EATOM= -202.7858
 kinetic energy error for atom=    0.0020 (will be added to EATOM!!)
PAW_PBE N 08Apr2002                     :
 energy of atom  6       EATOM= -264.5486
 kinetic energy error for atom=    0.0125 (will be added to EATOM!!)
PAW_PBE O 08Apr2002                     :
 energy of atom  7       EATOM= -432.3788
 kinetic energy error for atom=    0.0208 (will be added to EATOM!!)
 
 
 POSCAR: Be C F H O N Li                         
  positions in direct lattice
  No initial velocities read in
 exchange correlation table for  LEXCH =        8
   RHO(1)=    0.500       N(1)  =     2000
   RHO(2)=  100.500       N(2)  =     4000
 


--------------------------------------------------------------------------------------------------------


 ion  position               nearest neighbor table
   1  0.362  0.851  0.922-  16 1.50  23 1.52   9 1.52  18 1.55
   2  0.638  0.351  0.578-  17 1.50  24 1.52  10 1.52  19 1.55
   3  0.638  0.149  0.078-  14 1.50  12 1.52  11 1.52  20 1.55
   4  0.362  0.649  0.422-  15 1.50  13 1.52  22 1.52  21 1.55
   5  0.122  0.262  0.516-  29 1.08  38 1.08  33 1.08  61 1.46
   6  0.878  0.762  0.984-  30 1.08  39 1.08  34 1.08  62 1.46
   7  0.878  0.738  0.484-  31 1.08  40 1.08  35 1.08  63 1.46
   8  0.122  0.238  0.016-  32 1.08  41 1.08  36 1.08  64 1.46
   9  0.250  0.714  0.836-   1 1.52
  10  0.750  0.214  0.664-   2 1.52
  11  0.750  0.286  0.164-   3 1.52
  12  0.646  0.795  0.107-   3 1.52  58 1.76
  13  0.354  0.295  0.393-   4 1.52  59 1.76
  14  0.643  0.237  0.911-   3 1.50  60 1.76
  15  0.357  0.737  0.589-   4 1.50  57 1.76
  16  0.357  0.763  0.089-   1 1.50  58 1.76
  17  0.643  0.263  0.411-   2 1.50  59 1.76
  18  0.484  0.751  0.864-   1 1.55  60 1.80  57 1.82
  19  0.516  0.251  0.636-   2 1.55  57 1.80  60 1.82
  20  0.516  0.249  0.136-   3 1.55  58 1.80  59 1.82
  21  0.484  0.749  0.364-   4 1.55  59 1.80  58 1.82
  22  0.250  0.786  0.336-   4 1.52
  23  0.354  0.205  0.893-   1 1.52  60 1.76
  24  0.646  0.705  0.607-   2 1.52  57 1.76
  25  0.995  0.044  0.760-  65 1.04  66 1.43
  26  0.005  0.544  0.740-  66 1.04  65 1.43
  27  0.005  0.956  0.240-  67 1.04  68 1.43
  28  0.995  0.456  0.260-  68 1.04  67 1.43
  29  0.037  0.250  0.567-   5 1.08
  30  0.963  0.750  0.933-   6 1.08
  31  0.963  0.750  0.433-   7 1.08
  32  0.037  0.250  0.067-   8 1.08
  33  0.131  0.489  0.459-   5 1.08
  34  0.869  0.989  0.041-   6 1.08
  35  0.869  0.511  0.541-   7 1.08
  36  0.131  0.011  0.959-   8 1.08
  37  0.875  0.239  0.726-  65 0.99
  38  0.128  0.070  0.434-   5 1.08
  39  0.872  0.570  0.066-   6 1.08
  40  0.872  0.930  0.566-   7 1.08
  41  0.128  0.430  0.934-   8 1.08
  42  0.235  0.416  0.708-  61 1.03
  43  0.765  0.916  0.792-  62 1.03
  44  0.765  0.584  0.292-  63 1.03
  45  0.235  0.084  0.208-  64 1.03
  46  0.300  0.204  0.577-  61 1.03
  47  0.700  0.704  0.923-  62 1.03
  48  0.700  0.796  0.423-  63 1.03
  49  0.300  0.296  0.077-  64 1.03
  50  0.217  0.024  0.697-  61 1.03
  51  0.783  0.524  0.803-  62 1.03
  52  0.783  0.976  0.303-  63 1.03
  53  0.217  0.476  0.197-  64 1.03
  54  0.125  0.739  0.774-  66 0.99
  55  0.125  0.761  0.274-  67 0.99
  56  0.875  0.261  0.226-  68 0.99
  57  0.505  0.829  0.661-  24 1.76  15 1.76  19 1.80  18 1.82
  58  0.505  0.671  0.161-  12 1.76  16 1.76  20 1.80  21 1.82
  59  0.495  0.171  0.339-  13 1.76  17 1.76  21 1.80  20 1.82
  60  0.495  0.329  0.839-  23 1.76  14 1.76  18 1.80  19 1.82
  61  0.222  0.227  0.633-  50 1.03  46 1.03  42 1.03   5 1.46
  62  0.778  0.727  0.867-  51 1.03  47 1.03  43 1.03   6 1.46
  63  0.778  0.773  0.367-  52 1.03  48 1.03  44 1.03   7 1.46
  64  0.222  0.273  0.133-  53 1.03  49 1.03  45 1.03   8 1.46
  65  0.953  0.255  0.786-  37 0.99  25 1.04  26 1.43
  66  0.047  0.755  0.714-  54 0.99  26 1.04  25 1.43
  67  0.047  0.745  0.214-  55 0.99  27 1.04  28 1.43
  68  0.953  0.245  0.286-  56 0.99  28 1.04  27 1.43
 
  LATTYP: Found a simple monoclinic cell.
 ALAT       =    13.6099036444
 B/A-ratio  =     0.3106206414
 C/A-ratio  =     1.4602118858
 COS(beta)  =    -0.9340666871
  
  Lattice vectors:
  
 A1 = ( -10.0318360000,   0.0000000000,  -9.1973770000)
 A2 = (   0.0000000000,  -4.2275170000,   0.0000000000)
 A3 = (   8.8868980000,   0.0000000000,  17.7756240000)


Analysis of symmetry for initial positions (statically):
=====================================================================
 Subroutine PRICEL returns:
 Original cell was already a primitive cell.
 

 Routine SETGRP: Setting up the symmetry group for a 
 simple monoclinic supercell.


 Subroutine GETGRP returns: Found  4 space group operations
 (whereof  2 operations were pure point group operations)
 out of a pool of  4 trial point group operations.


The static configuration has the point symmetry S_2 .
 The point group associated with its full space group is C_2h.


Analysis of symmetry for dynamics (positions and initial velocities):
=====================================================================
 Subroutine PRICEL returns:
 Original cell was already a primitive cell.
 

 Routine SETGRP: Setting up the symmetry group for a 
 simple monoclinic supercell.


 Subroutine GETGRP returns: Found  4 space group operations
 (whereof  2 operations were pure point group operations)
 out of a pool of  4 trial point group operations.


The dynamic configuration has the point symmetry S_2 .
 The point group associated with its full space group is C_2h.
 
 
 KPOINTS: KPOINTS                                 

Automatic generation of k-mesh.
Space group operators:
 irot       det(A)        alpha          n_x          n_y          n_z        tau_x        tau_y        tau_z
    1     1.000000     0.000000     1.000000     0.000000     0.000000     0.000000     0.000000     0.000000
    2    -1.000000     0.000000     1.000000     0.000000     0.000000     0.000000     0.000000     0.000000
    3     1.000000   180.000000     0.000000     1.000000     0.000000    -0.000001    -0.500000     0.500000
    4    -1.000000   180.000000     0.000000     1.000000     0.000000    -0.000000    -0.499997     0.500000
 
 Subroutine IBZKPT returns following result:
 ===========================================
 
 Found     35 irreducible k-points:
 
 Following reciprocal coordinates:
            Coordinates               Weight
  0.000000  0.000000  0.000000      1.000000
  0.333333  0.000000  0.000000      2.000000
  0.000000  0.125000  0.000000      2.000000
  0.333333  0.125000  0.000000      4.000000
  0.000000  0.250000  0.000000      2.000000
  0.333333  0.250000  0.000000      4.000000
  0.000000  0.375000  0.000000      2.000000
  0.333333  0.375000  0.000000      4.000000
  0.000000  0.500000  0.000000      1.000000
  0.333333  0.500000  0.000000      2.000000
  0.000000  0.000000  0.250000      2.000000
  0.333333  0.000000  0.250000      2.000000
 -0.333333  0.000000  0.250000      2.000000
  0.000000  0.125000  0.250000      4.000000
  0.333333  0.125000  0.250000      4.000000
 -0.333333  0.125000  0.250000      4.000000
  0.000000  0.250000  0.250000      4.000000
  0.333333  0.250000  0.250000      4.000000
 -0.333333  0.250000  0.250000      4.000000
  0.000000  0.375000  0.250000      4.000000
  0.333333  0.375000  0.250000      4.000000
 -0.333333  0.375000  0.250000      4.000000
  0.000000  0.500000  0.250000      2.000000
  0.333333  0.500000  0.250000      2.000000
 -0.333333  0.500000  0.250000      2.000000
  0.000000  0.000000  0.500000      1.000000
  0.333333  0.000000  0.500000      2.000000
  0.000000  0.125000  0.500000      2.000000
  0.333333  0.125000  0.500000      4.000000
  0.000000  0.250000  0.500000      2.000000
  0.333333  0.250000  0.500000      4.000000
  0.000000  0.375000  0.500000      2.000000
  0.333333  0.375000  0.500000      4.000000
  0.000000  0.500000  0.500000      1.000000
  0.333333  0.500000  0.500000      2.000000
 
 Following cartesian coordinates:
            Coordinates               Weight
  0.000000  0.000000  0.000000      1.000000
  0.029605  0.000000  0.003951      2.000000
  0.000000  0.029568  0.000000      2.000000
  0.029605  0.029568  0.003951      4.000000
  0.000000  0.059136  0.000000      2.000000
  0.029605  0.059136  0.003951      4.000000
  0.000000  0.088705  0.000000      2.000000
  0.029605  0.088705  0.003951      4.000000
  0.000000  0.118273  0.000000      1.000000
  0.029605  0.118273  0.003951      2.000000
 -0.001603  0.000000  0.028930      2.000000
  0.028002  0.000000  0.032881      2.000000
 -0.031207  0.000000  0.024978      2.000000
 -0.001603  0.029568  0.028930      4.000000
  0.028002  0.029568  0.032881      4.000000
 -0.031207  0.029568  0.024978      4.000000
 -0.001603  0.059136  0.028930      4.000000
  0.028002  0.059136  0.032881      4.000000
 -0.031207  0.059136  0.024978      4.000000
 -0.001603  0.088705  0.028930      4.000000
  0.028002  0.088705  0.032881      4.000000
 -0.031207  0.088705  0.024978      4.000000
 -0.001603  0.118273  0.028930      2.000000
  0.028002  0.118273  0.032881      2.000000
 -0.031207  0.118273  0.024978      2.000000
 -0.003205  0.000000  0.057859      1.000000
  0.026400  0.000000  0.061811      2.000000
 -0.003205  0.029568  0.057859      2.000000
  0.026400  0.029568  0.061811      4.000000
 -0.003205  0.059136  0.057859      2.000000
  0.026400  0.059136  0.061811      4.000000
 -0.003205  0.088705  0.057859      2.000000
  0.026400  0.088705  0.061811      4.000000
 -0.003205  0.118273  0.057859      1.000000
  0.026400  0.118273  0.061811      2.000000
 
 TETIRR: Found    288 inequivalent tetrahedra from      576


--------------------------------------------------------------------------------------------------------




 Dimension of arrays:
   k-points           NKPTS =     35   k-points in BZ     NKDIM =     35   number of bands    NBANDS=    150
   number of dos      NEDOS =    301   number of ions     NIONS =     68
   non local maximal  LDIM  =      4   non local SUM 2l+1 LMDIM =      8
   total plane-waves  NPLWV =  73728
   max r-space proj   IRMAX =      1   max aug-charges    IRDMAX=   2786
   dimension x,y,z NGX =    64 NGY =   24 NGZ =   48
   dimension x,y,z NGXF=    96 NGYF=   36 NGZF=   72
   support grid    NGXF=    96 NGYF=   36 NGZF=   72
   ions per type =               4   4  16  32   4   4   4
 NGX,Y,Z   is equivalent  to a cutoff of   9.50,  9.44,  9.22 a.u.
 NGXF,Y,Z  is equivalent  to a cutoff of  14.26, 14.16, 13.83 a.u.


 I would recommend the setting:
   dimension x,y,z NGX =    62 NGY =   24 NGZ =   48
 SYSTEM =  unknown system                          
 POSCAR =  Be C F H O N Li                         

 Startparameter for this run:
   NWRITE =      2    write-flag & timer
   PREC   = med       normal or accurate (medium, high low for compatibility)
   ISTART =      0    job   : 0-new  1-cont  2-samecut
   ICHARG =      1    charge: 1-file 2-atom 10-const
   ISPIN  =      1    spin polarized calculation?
   LNONCOLLINEAR =      F non collinear calculations
   LSORBIT =      F    spin-orbit coupling
   INIWAV =      1    electr: 0-lowe 1-rand  2-diag
   LASPH  =      F    aspherical Exc in radial PAW
   METAGGA=      F    non-selfconsistent MetaGGA calc.

 Electronic Relaxation 1
   ENCUT  =  520.0 eV  38.22 Ry    6.18 a.u.  20.81  7.86 16.09*2*pi/ulx,y,z
   ENINI  =  520.0     initial cutoff
   ENAUG  =  644.9 eV  augmentation charge cutoff
   NELM   =     60;   NELMIN=  2; NELMDL=  0     # of ELM steps 
   EDIFF  = 0.1E-03   stopping-criterion for ELM
   LREAL  =      F    real-space projection
   NLSPLINE    = F    spline interpolate recip. space projectors
   LCOMPAT=      F    compatible to vasp.4.4
   GGA_COMPAT  = T    GGA compatible to vasp.4.4-vasp.4.6
   LMAXPAW     = -100 max onsite density
   LMAXMIX     =    2 max onsite mixed and CHGCAR
   VOSKOWN=      0    Vosko Wilk Nusair interpolation
   ROPT   =    0.00000   0.00000   0.00000   0.00000
   ROPT   =    0.00000   0.00000   0.00000
 Ionic relaxation
   EDIFFG = 0.1E-02   stopping-criterion for IOM
   NSW    =      0    number of steps for IOM
   NBLOCK =      1;   KBLOCK =      1    inner block; outer block 
   IBRION =     -1    ionic relax: 0-MD 1-quasi-New 2-CG
   NFREE  =      0    steps in history (QN), initial steepest desc. (CG)
   ISIF   =      2    stress and relaxation
   IWAVPR =     10    prediction:  0-non 1-charg 2-wave 3-comb
   ISYM   =      1    0-nonsym 1-usesym 2-fastsym
   LCORR  =      T    Harris-Foulkes like correction to forces

   POTIM  = 0.5000    time-step for ionic-motion
   TEIN   =    0.0    initial temperature
   TEBEG  =    0.0;   TEEND  =   0.0 temperature during run
   SMASS  =  -3.00    Nose mass-parameter (am)
   estimated Nose-frequenzy (Omega)   =  0.10E-29 period in steps =****** mass=  -0.286E-26a.u.
   SCALEE = 1.0000    scale energy and forces
   NPACO  =    256;   APACO  = 16.0  distance and # of slots for P.C.
   PSTRESS=    0.0 pullay stress

  Mass of Ions in am
   POMASS =   9.01 12.01 19.00  1.00  7.01 14.00 16.00
  Ionic Valenz
   ZVAL   =   2.00  4.00  7.00  1.00  3.00  5.00  6.00
  Atomic Wigner-Seitz radii
   RWIGS  =  -1.00 -1.00 -1.00 -1.00 -1.00 -1.00 -1.00
  virtual crystal weights 
   VCA    =   1.00  1.00  1.00  1.00  1.00  1.00  1.00
   NELECT =     224.0000    total number of electrons
   NUPDOWN=      -1.0000    fix difference up-down

 DOS related values:
   EMIN   =  10.00;   EMAX   =-10.00  energy-range for DOS
   EFERMI =   0.00
   ISMEAR =    -5;   SIGMA  =   0.20  broadening in eV -4-tet -1-fermi 0-gaus

 Electronic relaxation 2 (details)
   IALGO  =     68    algorithm
   LDIAG  =      T    sub-space diagonalisation (order eigenvalues)
   LSUBROT=      T    optimize rotation matrix (better conditioning)
   TURBO    =      0    0=normal 1=particle mesh
   IRESTART =      0    0=no restart 2=restart with 2 vectors
   NREBOOT  =      0    no. of reboots
   NMIN     =      0    reboot dimension
   EREF     =   0.00    reference energy to select bands
   IMIX   =      4    mixing-type and parameters
     AMIX     =   0.40;   BMIX     =  1.00
     AMIX_MAG =   1.60;   BMIX_MAG =  1.00
     AMIN     =   0.10
     WC   =   100.;   INIMIX=   1;  MIXPRE=   1;  MAXMIX= -45

 Intra band minimization:
   WEIMIN = 0.0000     energy-eigenvalue tresh-hold
   EBREAK =  0.17E-06  absolut break condition
   DEPER  =   0.30     relativ break condition  

   TIME   =   0.40     timestep for ELM

  volume/ion in A,a.u.               =       6.00        40.52
  Fermi-wavevector in a.u.,A,eV,Ry     =   1.340163  2.532541 24.436570  1.796037
  Thomas-Fermi vector in A             =   2.468498
 
 Write flags
   LWAVE  =      F    write WAVECAR
   LCHARG =      T    write CHGCAR
   LVTOT  =      F    write LOCPOT, total local potential
   LVHAR  =      T    write LOCPOT, Hartree potential only
   LELF   =      T    write electronic localiz. function (ELF)
   LORBIT =     11    0 simple, 1 ext, 2 COOP (PROOUT)


 Dipole corrections
   LMONO  =      F    monopole corrections only (constant potential shift)
   LDIPOL =      F    correct potential (dipole corrections)
   IDIPOL =      0    1-x, 2-y, 3-z, 4-all directions 
   EPSILON=  1.0000000 bulk dielectric constant

 Exchange correlation treatment:
   GGA     =    --    GGA type
   LEXCH   =     8    internal setting for exchange type
   VOSKOWN=      0    Vosko Wilk Nusair interpolation
   LHFCALC =     F    Hartree Fock is set to
   LHFONE  =     F    Hartree Fock one center treatment
   AEXX    =    0.0000 exact exchange contribution

 Linear response parameters
   LEPSILON=     F    determine dielectric tensor
   LRPA    =     F    only Hartree local field effects (RPA)
   LNABLA  =     F    use nabla operator in PAW spheres
   LVEL    =     F    velocity operator in full k-point grid
   LINTERFAST=   F  fast interpolation
   KINTER  =     0    interpolate to denser k-point grid
   CSHIFT  =0.1000    complex shift for real part using Kramers Kronig
   OMEGAMAX=  -1.0    maximum frequency
   DEG_THRESHOLD= 0.2000000E-02 threshold for treating states as degnerate
   RTIME   =    0.100 relaxation time in fs

 Orbital magnetization related:
   ORBITALMAG=     F  switch on orbital magnetization
   LCHIMAG   =     F  perturbation theory with respect to B field
   DQ        =  0.001000  dq finite difference perturbation B field



--------------------------------------------------------------------------------------------------------


 Static calculation
 charge density and potential will be updated during run
 non-spin polarized calculation
 RMM-DIIS sequential band-by-band and
  variant of blocked Davidson during initial phase
 perform sub-space diagonalisation
    before iterative eigenvector-optimisation
 modified Broyden-mixing scheme, WC =      100.0
 initial mixing is a Kerker type mixing with AMIX =  0.4000 and BMIX =      1.0000
 Hartree-type preconditioning will be used
 using additional bands  38
 reciprocal scheme for non local part
 use partial core corrections
 calculate Harris-corrections to forces   (improved forces if not selfconsistent)
 use gradient corrections 
 use of overlap-Matrix (Vanderbilt PP)
 Fermi weights with tetrahedron method with Bloechl corrections


--------------------------------------------------------------------------------------------------------


  energy-cutoff  :      520.00
  volume of cell :      408.32
      direct lattice vectors                 reciprocal lattice vectors
    11.176774000  0.000000000  0.619130000     0.088814606 -0.000000000  0.011854079
     0.000000000  4.227517000  0.000000000     0.000000000  0.236545471 -0.000000000
    -1.144938000  0.000000000  8.578247000    -0.006410143  0.000000000  0.115718373

  length of vectors
    11.193909014  4.227517000  8.654317109     0.089602196  0.236545471  0.115895780


 
 k-points in units of 2pi/SCALE and weight: KPOINTS                                 
   0.00000000  0.00000000  0.00000000       0.010
   0.02960487  0.00000000  0.00395136       0.021
   0.00000000  0.02956818  0.00000000       0.021
   0.02960487  0.02956818  0.00395136       0.042
   0.00000000  0.05913637  0.00000000       0.021
   0.02960487  0.05913637  0.00395136       0.042
   0.00000000  0.08870455  0.00000000       0.021
   0.02960487  0.08870455  0.00395136       0.042
   0.00000000  0.11827274  0.00000000       0.010
   0.02960487  0.11827274  0.00395136       0.021
  -0.00160254  0.00000000  0.02892959       0.021
   0.02800233  0.00000000  0.03288095       0.021
  -0.03120740  0.00000000  0.02497823       0.021
  -0.00160254  0.02956818  0.02892959       0.042
   0.02800233  0.02956818  0.03288095       0.042
  -0.03120740  0.02956818  0.02497823       0.042
  -0.00160254  0.05913637  0.02892959       0.042
   0.02800233  0.05913637  0.03288095       0.042
  -0.03120740  0.05913637  0.02497823       0.042
  -0.00160254  0.08870455  0.02892959       0.042
   0.02800233  0.08870455  0.03288095       0.042
  -0.03120740  0.08870455  0.02497823       0.042
  -0.00160254  0.11827274  0.02892959       0.021
   0.02800233  0.11827274  0.03288095       0.021
  -0.03120740  0.11827274  0.02497823       0.021
  -0.00320507  0.00000000  0.05785919       0.010
   0.02639980  0.00000000  0.06181055       0.021
  -0.00320507  0.02956818  0.05785919       0.021
   0.02639980  0.02956818  0.06181055       0.042
  -0.00320507  0.05913637  0.05785919       0.021
   0.02639980  0.05913637  0.06181055       0.042
  -0.00320507  0.08870455  0.05785919       0.021
   0.02639980  0.08870455  0.06181055       0.042
  -0.00320507  0.11827274  0.05785919       0.010
   0.02639980  0.11827274  0.06181055       0.021
 
 k-points in reciprocal lattice and weights: KPOINTS                                 
   0.00000000  0.00000000  0.00000000       0.010
   0.33333333  0.00000000  0.00000000       0.021
   0.00000000  0.12500000  0.00000000       0.021
   0.33333333  0.12500000  0.00000000       0.042
   0.00000000  0.25000000  0.00000000       0.021
   0.33333333  0.25000000  0.00000000       0.042
   0.00000000  0.37500000  0.00000000       0.021
   0.33333333  0.37500000  0.00000000       0.042
   0.00000000  0.50000000  0.00000000       0.010
   0.33333333  0.50000000  0.00000000       0.021
   0.00000000  0.00000000  0.25000000       0.021
   0.33333333  0.00000000  0.25000000       0.021
  -0.33333333  0.00000000  0.25000000       0.021
   0.00000000  0.12500000  0.25000000       0.042
   0.33333333  0.12500000  0.25000000       0.042
  -0.33333333  0.12500000  0.25000000       0.042
   0.00000000  0.25000000  0.25000000       0.042
   0.33333333  0.25000000  0.25000000       0.042
  -0.33333333  0.25000000  0.25000000       0.042
   0.00000000  0.37500000  0.25000000       0.042
   0.33333333  0.37500000  0.25000000       0.042
  -0.33333333  0.37500000  0.25000000       0.042
   0.00000000  0.50000000  0.25000000       0.021
   0.33333333  0.50000000  0.25000000       0.021
  -0.33333333  0.50000000  0.25000000       0.021
   0.00000000  0.00000000  0.50000000       0.010
   0.33333333  0.00000000  0.50000000       0.021
   0.00000000  0.12500000  0.50000000       0.021
   0.33333333  0.12500000  0.50000000       0.042
   0.00000000  0.25000000  0.50000000       0.021
   0.33333333  0.25000000  0.50000000       0.042
   0.00000000  0.37500000  0.50000000       0.021
   0.33333333  0.37500000  0.50000000       0.042
   0.00000000  0.50000000  0.50000000       0.010
   0.33333333  0.50000000  0.50000000       0.021
 
 position of ions in fractional coordinates (direct lattice) 
   0.36159953  0.85119226  0.92185415
   0.63839989  0.35119194  0.57814576
   0.63840089  0.14880601  0.07814611
   0.36159964  0.64881107  0.42185456
   0.12221987  0.26175647  0.51576037
   0.87778031  0.76175679  0.98423831
   0.87777954  0.73824654  0.48423879
   0.12221986  0.23824385  0.01575963
   0.24958484  0.71364344  0.83567240
   0.75041634  0.21364549  0.66432738
   0.75041557  0.28635720  0.16432785
   0.64573514  0.79465790  0.10659588
   0.35426427  0.29465994  0.39340254
   0.64280447  0.23733552  0.91085277
   0.35719494  0.73733347  0.58914714
   0.35719506  0.76266512  0.08914755
   0.64280447  0.26266717  0.41085203
   0.48354944  0.75065571  0.86357734
   0.51645009  0.25065776  0.63642373
   0.51645109  0.24934493  0.13642408
   0.48355021  0.74934288  0.36357537
   0.24958496  0.78635515  0.33567281
   0.35426504  0.20534038  0.89340207
   0.64573514  0.70533833  0.60659662
   0.99493924  0.04395724  0.76044357
   0.00506017  0.54395520  0.73955634
   0.00506017  0.95604340  0.23955559
   0.99493935  0.45604544  0.26044398
   0.03740548  0.25015391  0.56690615
   0.96259494  0.75015424  0.93309485
   0.96259493  0.74984673  0.43309410
   0.03740459  0.24984404  0.06690547
   0.13089042  0.48894182  0.45939825
   0.86910987  0.98894451  0.04060010
   0.86910975  0.51105646  0.54059969
   0.13089131  0.01105613  0.95939893
   0.87490865  0.23901735  0.72573888
   0.12803097  0.06987080  0.43425330
   0.87197044  0.56987112  0.06574730
   0.87196956  0.93012748  0.56574811
   0.12803086  0.43012952  0.93425289
   0.23496500  0.41644774  0.70809991
   0.76503541  0.91644806  0.79190110
   0.76503553  0.58355291  0.29190151
   0.23496423  0.08355259  0.20810038
   0.29984742  0.20404411  0.57686672
   0.70015199  0.70404443  0.92313318
   0.70015288  0.79595653  0.42313237
   0.29984842  0.29595385  0.07686707
   0.21743336  0.02445880  0.69749918
   0.78256782  0.52445912  0.80250060
   0.78256616  0.97554421  0.30250114
   0.21743259  0.47554389  0.19749966
   0.12509165  0.73902004  0.77426097
   0.12509088  0.76098092  0.27426144
   0.87490877  0.26098060  0.22573929
   0.50472587  0.82902559  0.66074907
   0.50472575  0.67097064  0.16074717
   0.49527467  0.17097269  0.33925234
   0.49527455  0.32902527  0.83925193
   0.22218626  0.22686838  0.63301717
   0.77781416  0.72686634  0.86698383
   0.77781415  0.77313226  0.36698309
   0.22218626  0.27313431  0.13301642
   0.95288536  0.25460807  0.78638673
   0.04711494  0.75460602  0.71361312
   0.04711494  0.74539258  0.21361237
   0.95288548  0.24539225  0.28638714
 
 position of ions in cartesian coordinates  (Angst):
   2.98605033  3.59842975  8.13176969
   6.47331020  1.48466990  5.35472966
   7.04579001  0.62907996  1.06560976
   3.55852015  2.74285981  3.84264979
   0.77551019  1.10657992  4.49998986
   8.68386034  3.22033978  8.98649950
   9.25632016  3.12094979  4.69737959
   1.34798000  1.00717993  0.21085995
   1.83276030  3.01693979  7.32312975
   7.62662023  0.90318994  6.16336960
   8.19908004  1.21057992  1.87424970
   7.09519002  3.35942977  1.31419975
   3.50911014  1.24567992  3.59403980
   6.14161032  1.00333993  8.21149959
   3.31775021  3.11708979  5.27499976
   3.89022003  3.22417978  0.98587986
   6.71408014  1.11042992  3.92236969
   4.41578030  3.17340978  7.70735966
   5.04358022  1.05965993  5.77914969
   5.61606004  1.05410993  1.49002979
   4.98826012  3.16785978  3.41821976
   2.40523012  3.32432977  3.03400985
   2.93665032  0.86807994  7.88315970
   6.52272021  2.98182980  5.60332965
  10.24955026  0.18582999  7.13926950
  -0.79018973  2.29957984  6.34722985
  -0.21771991  4.04168972  2.05809995
  10.82202007  1.92793987  2.85014960
  -0.23099979  1.05752993  4.88621988
   9.69037032  3.17128978  8.60028948
  10.26284014  3.16998978  4.31115957
   0.34146002  1.05621993  0.59708997
   0.93695016  2.06700986  4.02186986
   9.66736000  4.18077971  0.88636968
   9.09489018  2.16049985  5.17548959
   0.36449035  0.04674000  8.31099977
   8.94773025  1.01044993  6.76724955
   0.93378016  0.29537998  3.80439987
   9.67054000  2.40913984  1.10385968
   9.09806019  3.93212973  5.39298958
   0.36131034  1.81837988  8.09351977
   1.81542025  1.76053988  6.21972978
   7.64395027  3.87429974  7.26677957
   8.21642009  2.46697983  2.97765967
   2.38788007  0.35321998  1.93060988
   2.69085020  0.86259994  5.13414978
   6.76851032  2.97635980  8.35234957
   7.34099014  3.36491977  4.06321967
   3.26333002  1.25114991  0.84502988
   1.63161025  0.10339999  6.11793979
   7.82777028  2.21715985  7.36855957
   8.40022009  4.12412972  3.07943966
   2.20407007  2.01036986  1.82881988
   0.51164028  3.12421979  6.71924980
   1.08410010  3.21705978  2.43012990
   9.52020006  1.10329992  2.47812965
   4.88469023  3.50471976  5.98055969
   5.45716005  2.83653981  1.69141979
   5.14715011  0.72278995  3.21682976
   4.57468030  1.39095991  7.50594966
   1.75856023  0.95908993  5.56773980
   7.70081030  3.07283979  7.91876955
   8.27328012  3.26842978  3.62963965
   2.33103004  1.15467992  1.27860990
   9.74982027  1.07635993  7.33577951
  -0.29044974  3.19010978  6.15071984
   0.28202008  3.15115979  1.86158994
  10.32229008  1.03739993  3.04665961
 


--------------------------------------------------------------------------------------------------------


 k-point  1 :   0.0000 0.0000 0.0000  plane waves:   10997
 k-point  2 :   0.3333 0.0000 0.0000  plane waves:   10967
 k-point  3 :   0.0000 0.1250 0.0000  plane waves:   10963
 k-point  4 :   0.3333 0.1250 0.0000  plane waves:   10961
 k-point  5 :   0.0000 0.2500 0.0000  plane waves:   10988
 k-point  6 :   0.3333 0.2500 0.0000  plane waves:   10979
 k-point  7 :   0.0000 0.3750 0.0000  plane waves:   11000
 k-point  8 :   0.3333 0.3750 0.0000  plane waves:   11022
 k-point  9 :   0.0000 0.5000 0.0000  plane waves:   11020
 k-point 10 :   0.3333 0.5000 0.0000  plane waves:   11018
 k-point 11 :   0.0000 0.0000 0.2500  plane waves:   10995
 k-point 12 :   0.3333 0.0000 0.2500  plane waves:   10985
 k-point 13 :  -0.3333 0.0000 0.2500  plane waves:   10986
 k-point 14 :   0.0000 0.1250 0.2500  plane waves:   10975
 k-point 15 :   0.3333 0.1250 0.2500  plane waves:   10981
 k-point 16 :  -0.3333 0.1250 0.2500  plane waves:   10981
 k-point 17 :   0.0000 0.2500 0.2500  plane waves:   10988
 k-point 18 :   0.3333 0.2500 0.2500  plane waves:   10992
 k-point 19 :  -0.3333 0.2500 0.2500  plane waves:   11001
 k-point 20 :   0.0000 0.3750 0.2500  plane waves:   11016
 k-point 21 :   0.3333 0.3750 0.2500  plane waves:   11005
 k-point 22 :  -0.3333 0.3750 0.2500  plane waves:   10999
 k-point 23 :   0.0000 0.5000 0.2500  plane waves:   11002
 k-point 24 :   0.3333 0.5000 0.2500  plane waves:   11032
 k-point 25 :  -0.3333 0.5000 0.2500  plane waves:   11008
 k-point 26 :   0.0000 0.0000 0.5000  plane waves:   10950
 k-point 27 :   0.3333 0.0000 0.5000  plane waves:   10984
 k-point 28 :   0.0000 0.1250 0.5000  plane waves:   10998
 k-point 29 :   0.3333 0.1250 0.5000  plane waves:   11002
 k-point 30 :   0.0000 0.2500 0.5000  plane waves:   11010
 k-point 31 :   0.3333 0.2500 0.5000  plane waves:   11004
 k-point 32 :   0.0000 0.3750 0.5000  plane waves:   11016
 k-point 33 :   0.3333 0.3750 0.5000  plane waves:   11008
 k-point 34 :   0.0000 0.5000 0.5000  plane waves:   11000
 k-point 35 :   0.3333 0.5000 0.5000  plane waves:   11006

 maximum and minimum number of plane-waves per node :      1424     1328

 maximum number of plane-waves:     11032
 maximum index in each direction: 
   IXMAX=   21   IYMAX=    7   IZMAX=   16
   IXMIN=  -21   IYMIN=   -8   IZMIN=  -16

 WARNING: aliasing errors must be expected set NGX to  86 to avoid them
 WARNING: aliasing errors must be expected set NGY to  32 to avoid them
 WARNING: aliasing errors must be expected set NGZ to  66 to avoid them
 aliasing errors are usually negligible using standard VASP settings
 and one can safely disregard these warnings

 parallel 3D FFT for wavefunctions:
    minimum data exchange during FFTs selected (reduces bandwidth)
 parallel 3D FFT for charge:
    minimum data exchange during FFTs selected (reduces bandwidth)


 total amount of memory used by VASP on root node    75437. kBytes
========================================================================

   base      :      30000. kBytes
   nonl-proj :      23542. kBytes
   fftplans  :        488. kBytes
   grid      :        884. kBytes
   one-center:         27. kBytes
   wavefun   :      20496. kBytes
 
 Broyden mixing: mesh for mixing (old mesh)
   NGX = 41   NGY = 15   NGZ = 33
  (NGX  = 96   NGY  = 36   NGZ  = 72)
  gives a total of  20295 points

 initial charge density was supplied:
 charge density of overlapping atoms calculated
 number of electron     224.0000000 magnetization 
 keeping initial charge density in first step


--------------------------------------------------------------------------------------------------------


 Maximum index for augmentation-charges  162 (set IRDMAX)


--------------------------------------------------------------------------------------------------------


 First call to EWALD:  gamma=   0.239
 Maximum number of real-space cells 2x 4x 2
 Maximum number of reciprocal cells 4x 2x 3

 FEWALD executed in parallel
    FEWALD:  cpu time    0.01: real time    0.01


----------------------------------------- Iteration    1(   1)  ---------------------------------------


    POTLOK:  cpu time    0.03: real time    0.03
    SETDIJ:  cpu time    0.01: real time    0.01
     EDDAV:  cpu time   21.41: real time   21.41
 BZINTS: Fermi energy: 16.031993;224.000000 electrons
         Band energy:-596.279750;  BLOECHL correction: -0.038948
       DOS:  cpu time    0.33: real time    0.33
    --------------------------------------------
      LOOP:  cpu time   21.89: real time   21.89

 eigenvalue-minimisations  : 10560
 total energy-change (2. order) : 0.1478279E+04  (-0.1248090E+05)
 number of electron     224.0000000 magnetization 
 augmentation part      224.0000000 magnetization 

 Free energy of the ion-electron system (eV)
  ---------------------------------------------------
  alpha Z        PSCENC =       485.41370415
  Ewald energy   TEWEN  =     -9422.78030869
  -1/2 Hartree   DENC   =     -5039.09549854
  -exchange  EXHF       =         0.00000000
  -V(xc)+E(xc)   XCENC  =       994.81489741
  PAW double counting   =      8752.07800264    -8944.10835454
  entropy T*S    EENTRO =         0.00000000
  eigenvalues    EBANDS =      -596.27974985
  atomic energy  EATOM  =     15248.23617661
  ---------------------------------------------------
  free energy    TOTEN  =      1478.27886919 eV

  energy without entropy =     1478.27886919  energy(sigma->0) =     1478.27886919


--------------------------------------------------------------------------------------------------------




----------------------------------------- Iteration    1(   2)  ---------------------------------------


     EDDAV:  cpu time   23.93: real time   23.93
 BZINTS: Fermi energy: -0.387818;224.000000 electrons
         Band energy:***********;  BLOECHL correction:  0.000000
       DOS:  cpu time    0.05: real time    0.05
    --------------------------------------------
      LOOP:  cpu time   23.98: real time   23.99

 eigenvalue-minimisations  : 12180
 total energy-change (2. order) :-0.1724680E+04  (-0.1668408E+04)
 number of electron     224.0000000 magnetization 
 augmentation part      224.0000000 magnetization 

 Free energy of the ion-electron system (eV)
  ---------------------------------------------------
  alpha Z        PSCENC =       485.41370415
  Ewald energy   TEWEN  =     -9422.78030869
  -1/2 Hartree   DENC   =     -5039.09549854
  -exchange  EXHF       =         0.00000000
  -V(xc)+E(xc)   XCENC  =       994.81489741
  PAW double counting   =      8752.07800264    -8944.10835454
  entropy T*S    EENTRO =         0.00000000
  eigenvalues    EBANDS =     -2320.95937881
  atomic energy  EATOM  =     15248.23617661
  ---------------------------------------------------
  free energy    TOTEN  =      -246.40075977 eV

  energy without entropy =     -246.40075977  energy(sigma->0) =     -246.40075977


--------------------------------------------------------------------------------------------------------




----------------------------------------- Iteration    1(   3)  ---------------------------------------


     EDDAV:  cpu time   24.91: real time   24.92
 BZINTS: Fermi energy: -2.000208;224.000000 electrons
         Band energy:***********;  BLOECHL correction:  0.000000
       DOS:  cpu time    0.04: real time    0.04
    --------------------------------------------
      LOOP:  cpu time   24.96: real time   24.96

 eigenvalue-minimisations  : 12834
 total energy-change (2. order) :-0.1168507E+03  (-0.1160451E+03)
 number of electron     224.0000000 magnetization 
 augmentation part      224.0000000 magnetization 

 Free energy of the ion-electron system (eV)
  ---------------------------------------------------
  alpha Z        PSCENC =       485.41370415
  Ewald energy   TEWEN  =     -9422.78030869
  -1/2 Hartree   DENC   =     -5039.09549854
  -exchange  EXHF       =         0.00000000
  -V(xc)+E(xc)   XCENC  =       994.81489741
  PAW double counting   =      8752.07800264    -8944.10835454
  entropy T*S    EENTRO =         0.00000000
  eigenvalues    EBANDS =     -2437.81011339
  atomic energy  EATOM  =     15248.23617661
  ---------------------------------------------------
  free energy    TOTEN  =      -363.25149435 eV

  energy without entropy =     -363.25149435  energy(sigma->0) =     -363.25149435


--------------------------------------------------------------------------------------------------------




----------------------------------------- Iteration    1(   4)  ---------------------------------------


     EDDAV:  cpu time   25.01: real time   25.02
 BZINTS: Fermi energy: -2.073302;224.000000 electrons
         Band energy:***********;  BLOECHL correction:  0.000000
       DOS:  cpu time    0.04: real time    0.03
    --------------------------------------------
      LOOP:  cpu time   25.05: real time   25.06

 eigenvalue-minimisations  : 12876
 total energy-change (2. order) :-0.2173509E+01  (-0.2164405E+01)
 number of electron     224.0000000 magnetization 
 augmentation part      224.0000000 magnetization 

 Free energy of the ion-electron system (eV)
  ---------------------------------------------------
  alpha Z        PSCENC =       485.41370415
  Ewald energy   TEWEN  =     -9422.78030869
  -1/2 Hartree   DENC   =     -5039.09549854
  -exchange  EXHF       =         0.00000000
  -V(xc)+E(xc)   XCENC  =       994.81489741
  PAW double counting   =      8752.07800264    -8944.10835454
  entropy T*S    EENTRO =         0.00000000
  eigenvalues    EBANDS =     -2439.98362201
  atomic energy  EATOM  =     15248.23617661
  ---------------------------------------------------
  free energy    TOTEN  =      -365.42500297 eV

  energy without entropy =     -365.42500297  energy(sigma->0) =     -365.42500297


--------------------------------------------------------------------------------------------------------




----------------------------------------- Iteration    1(   5)  ---------------------------------------


     EDDAV:  cpu time   25.15: real time   25.16
 BZINTS: Fermi energy: -1.947872;224.000000 electrons
         Band energy:***********;  BLOECHL correction:  0.000000
       DOS:  cpu time    0.04: real time    0.04
    CHARGE:  cpu time    0.48: real time    0.48
    MIXING:  cpu time    0.00: real time    0.00
    --------------------------------------------
      LOOP:  cpu time   25.67: real time   25.68

 eigenvalue-minimisations  : 12984
 total energy-change (2. order) :-0.4996379E-01  (-0.4986938E-01)
 number of electron     224.0000142 magnetization 
 augmentation part       32.8871995 magnetization 

 Broyden mixing:
  rms(total) = 0.30461E+01    rms(broyden)= 0.30450E+01
  rms(prec ) = 0.37921E+01
  weight for this iteration     100.00

 Free energy of the ion-electron system (eV)
  ---------------------------------------------------
  alpha Z        PSCENC =       485.41370415
  Ewald energy   TEWEN  =     -9422.78030869
  -1/2 Hartree   DENC   =     -5039.09549854
  -exchange  EXHF       =         0.00000000
  -V(xc)+E(xc)   XCENC  =       994.81489741
  PAW double counting   =      8752.07800264    -8944.10835454
  entropy T*S    EENTRO =         0.00000000
  eigenvalues    EBANDS =     -2440.03358580
  atomic energy  EATOM  =     15248.23617661
  ---------------------------------------------------
  free energy    TOTEN  =      -365.47496676 eV

  energy without entropy =     -365.47496676  energy(sigma->0) =     -365.47496676


--------------------------------------------------------------------------------------------------------




----------------------------------------- Iteration    1(   6)  ---------------------------------------


    POTLOK:  cpu time    0.02: real time    0.02
    SETDIJ:  cpu time    0.01: real time    0.01
    EDDIAG:  cpu time    3.58: real time    3.58
  RMM-DIIS:  cpu time   14.18: real time   14.18
    ORTHCH:  cpu time    1.44: real time    1.44
 BZINTS: Fermi energy:  0.161075;224.000000 electrons
         Band energy:***********;  BLOECHL correction:  0.000000
       DOS:  cpu time    0.04: real time    0.03
    CHARGE:  cpu time    0.45: real time    0.45
    MIXING:  cpu time    0.00: real time    0.00
    --------------------------------------------
      LOOP:  cpu time   19.71: real time   19.71

 eigenvalue-minimisations  : 12302
 total energy-change (2. order) : 0.2188894E+02  (-0.7908733E+01)
 number of electron     224.0000131 magnetization 
 augmentation part       30.8904159 magnetization 

 Broyden mixing:
  rms(total) = 0.11890E+01    rms(broyden)= 0.11885E+01
  rms(prec ) = 0.14337E+01
  weight for this iteration     100.00

 eigenvalues of (default mixing * dielectric matrix)
  average eigenvalue GAMMA=   1.1262
  1.1262

 Free energy of the ion-electron system (eV)
  ---------------------------------------------------
  alpha Z        PSCENC =       485.41370415
  Ewald energy   TEWEN  =     -9422.78030869
  -1/2 Hartree   DENC   =     -5387.91358826
  -exchange  EXHF       =         0.00000000
  -V(xc)+E(xc)   XCENC  =      1018.31157052
  PAW double counting   =      9819.69576119   -10022.90934306
  entropy T*S    EENTRO =         0.00000000
  eigenvalues    EBANDS =     -2081.63999485
  atomic energy  EATOM  =     15248.23617661
  ---------------------------------------------------
  free energy    TOTEN  =      -343.58602239 eV

  energy without entropy =     -343.58602239  energy(sigma->0) =     -343.58602239


--------------------------------------------------------------------------------------------------------




----------------------------------------- Iteration    1(   7)  ---------------------------------------


    POTLOK:  cpu time    0.02: real time    0.02
    SETDIJ:  cpu time    0.00: real time    0.01
    EDDIAG:  cpu time    3.58: real time    3.58
  RMM-DIIS:  cpu time   16.89: real time   16.89
    ORTHCH:  cpu time    1.44: real time    1.44
 BZINTS: Fermi energy:  0.415776;224.000000 electrons
         Band energy:***********;  BLOECHL correction:  0.000000
       DOS:  cpu time    0.04: real time    0.04
    CHARGE:  cpu time    0.44: real time    0.45
    MIXING:  cpu time    0.01: real time    0.00
    --------------------------------------------
      LOOP:  cpu time   22.43: real time   22.44

 eigenvalue-minimisations  : 14902
 total energy-change (2. order) : 0.2773521E+01  (-0.5988042E+00)
 number of electron     224.0000134 magnetization 
 augmentation part       30.6122943 magnetization 

 Broyden mixing:
  rms(total) = 0.66322E+00    rms(broyden)= 0.66310E+00
  rms(prec ) = 0.77870E+00
  weight for this iteration     100.00

 eigenvalues of (default mixing * dielectric matrix)
  average eigenvalue GAMMA=   1.6830
  1.1643  2.2018

 Free energy of the ion-electron system (eV)
  ---------------------------------------------------
  alpha Z        PSCENC =       485.41370415
  Ewald energy   TEWEN  =     -9422.78030869
  -1/2 Hartree   DENC   =     -5473.70051723
  -exchange  EXHF       =         0.00000000
  -V(xc)+E(xc)   XCENC  =      1024.53763318
  PAW double counting   =     10266.05395519   -10469.64692949
  entropy T*S    EENTRO =         0.00000000
  eigenvalues    EBANDS =     -1998.92621555
  atomic energy  EATOM  =     15248.23617661
  ---------------------------------------------------
  free energy    TOTEN  =      -340.81250184 eV

  energy without entropy =     -340.81250184  energy(sigma->0) =     -340.81250184


--------------------------------------------------------------------------------------------------------




----------------------------------------- Iteration    1(   8)  ---------------------------------------


    POTLOK:  cpu time    0.02: real time    0.02
    SETDIJ:  cpu time    0.01: real time    0.01
    EDDIAG:  cpu time    3.58: real time    3.58
  RMM-DIIS:  cpu time   15.27: real time   15.27
    ORTHCH:  cpu time    1.43: real time    1.43
 BZINTS: Fermi energy:  0.180941;224.000000 electrons
         Band energy:***********;  BLOECHL correction:  0.000000
       DOS:  cpu time    0.04: real time    0.03
    CHARGE:  cpu time    0.44: real time    0.45
    MIXING:  cpu time    0.00: real time    0.00
    --------------------------------------------
      LOOP:  cpu time   20.79: real time   20.79

 eigenvalue-minimisations  : 13467
 total energy-change (2. order) : 0.3119731E+00  (-0.1359886E+00)
 number of electron     224.0000136 magnetization 
 augmentation part       30.6401478 magnetization 

 Broyden mixing:
  rms(total) = 0.10749E+00    rms(broyden)= 0.10744E+00
  rms(prec ) = 0.16064E+00
  weight for this iteration     100.00

 eigenvalues of (default mixing * dielectric matrix)
  average eigenvalue GAMMA=   1.5727
  2.4261  1.1460  1.1460

 Free energy of the ion-electron system (eV)
  ---------------------------------------------------
  alpha Z        PSCENC =       485.41370415
  Ewald energy   TEWEN  =     -9422.78030869
  -1/2 Hartree   DENC   =     -5518.27471130
  -exchange  EXHF       =         0.00000000
  -V(xc)+E(xc)   XCENC  =      1028.13297715
  PAW double counting   =     10618.61887427   -10820.42644554
  entropy T*S    EENTRO =         0.00000000
  eigenvalues    EBANDS =     -1959.42079536
  atomic energy  EATOM  =     15248.23617661
  ---------------------------------------------------
  free energy    TOTEN  =      -340.50052872 eV

  energy without entropy =     -340.50052872  energy(sigma->0) =     -340.50052872


--------------------------------------------------------------------------------------------------------




----------------------------------------- Iteration    1(   9)  ---------------------------------------


    POTLOK:  cpu time    0.02: real time    0.02
    SETDIJ:  cpu time    0.01: real time    0.01
    EDDIAG:  cpu time    3.56: real time    3.57
  RMM-DIIS:  cpu time   16.11: real time   16.11
    ORTHCH:  cpu time    1.44: real time    1.44
 BZINTS: Fermi energy:  0.220947;224.000000 electrons
         Band energy:***********;  BLOECHL correction:  0.000000
       DOS:  cpu time    0.04: real time    0.04
    CHARGE:  cpu time    0.45: real time    0.45
    MIXING:  cpu time    0.00: real time    0.00
    --------------------------------------------
      LOOP:  cpu time   21.64: real time   21.64

 eigenvalue-minimisations  : 14177
 total energy-change (2. order) : 0.2753183E-01  (-0.1191651E-01)
 number of electron     224.0000136 magnetization 
 augmentation part       30.6134045 magnetization 

 Broyden mixing:
  rms(total) = 0.43781E-01    rms(broyden)= 0.43756E-01
  rms(prec ) = 0.81591E-01
  weight for this iteration     100.00

 eigenvalues of (default mixing * dielectric matrix)
  average eigenvalue GAMMA=   1.6155
  2.4028  1.0909  1.0909  1.8774

 Free energy of the ion-electron system (eV)
  ---------------------------------------------------
  alpha Z        PSCENC =       485.41370415
  Ewald energy   TEWEN  =     -9422.78030869
  -1/2 Hartree   DENC   =     -5533.08525410
  -exchange  EXHF       =         0.00000000
  -V(xc)+E(xc)   XCENC  =      1029.05446206
  PAW double counting   =     10673.66422661   -10875.32069978
  entropy T*S    EENTRO =         0.00000000
  eigenvalues    EBANDS =     -1945.65530375
  atomic energy  EATOM  =     15248.23617661
  ---------------------------------------------------
  free energy    TOTEN  =      -340.47299688 eV

  energy without entropy =     -340.47299688  energy(sigma->0) =     -340.47299688


--------------------------------------------------------------------------------------------------------




----------------------------------------- Iteration    1(  10)  ---------------------------------------


    POTLOK:  cpu time    0.02: real time    0.02
    SETDIJ:  cpu time    0.01: real time    0.01
    EDDIAG:  cpu time    3.58: real time    3.58
  RMM-DIIS:  cpu time   15.81: real time   15.82
    ORTHCH:  cpu time    1.44: real time    1.44
 BZINTS: Fermi energy:  0.119560;224.000000 electrons
         Band energy:***********;  BLOECHL correction:  0.000000
       DOS:  cpu time    0.03: real time    0.03
    CHARGE:  cpu time    0.45: real time    0.45
    MIXING:  cpu time    0.00: real time    0.00
    --------------------------------------------
      LOOP:  cpu time   21.35: real time   21.35

 eigenvalue-minimisations  : 14042
 total energy-change (2. order) : 0.1340747E-01  (-0.4253455E-02)
 number of electron     224.0000137 magnetization 
 augmentation part       30.6030862 magnetization 

 Broyden mixing:
  rms(total) = 0.20915E-01    rms(broyden)= 0.20901E-01
  rms(prec ) = 0.41111E-01
  weight for this iteration     100.00

 eigenvalues of (default mixing * dielectric matrix)
  average eigenvalue GAMMA=   1.7039
  2.6754  2.2228  0.9865  1.2036  1.4312

 Free energy of the ion-electron system (eV)
  ---------------------------------------------------
  alpha Z        PSCENC =       485.41370415
  Ewald energy   TEWEN  =     -9422.78030869
  -1/2 Hartree   DENC   =     -5537.94232821
  -exchange  EXHF       =         0.00000000
  -V(xc)+E(xc)   XCENC  =      1029.14374721
  PAW double counting   =     10665.88326179   -10867.40817402
  entropy T*S    EENTRO =         0.00000000
  eigenvalues    EBANDS =     -1941.00566825
  atomic energy  EATOM  =     15248.23617661
  ---------------------------------------------------
  free energy    TOTEN  =      -340.45958942 eV

  energy without entropy =     -340.45958942  energy(sigma->0) =     -340.45958942


--------------------------------------------------------------------------------------------------------




----------------------------------------- Iteration    1(  11)  ---------------------------------------


    POTLOK:  cpu time    0.02: real time    0.02
    SETDIJ:  cpu time    0.00: real time    0.01
    EDDIAG:  cpu time    3.57: real time    3.57
  RMM-DIIS:  cpu time   15.49: real time   15.49
    ORTHCH:  cpu time    1.44: real time    1.44
 BZINTS: Fermi energy:  0.099401;224.000000 electrons
         Band energy:***********;  BLOECHL correction:  0.000000
       DOS:  cpu time    0.04: real time    0.04
    CHARGE:  cpu time    0.45: real time    0.45
    MIXING:  cpu time    0.00: real time    0.00
    --------------------------------------------
      LOOP:  cpu time   21.02: real time   21.02

 eigenvalue-minimisations  : 13642
 total energy-change (2. order) : 0.5631082E-02  (-0.1760922E-02)
 number of electron     224.0000137 magnetization 
 augmentation part       30.6130764 magnetization 

 Broyden mixing:
  rms(total) = 0.13766E-01    rms(broyden)= 0.13758E-01
  rms(prec ) = 0.19778E-01
  weight for this iteration     100.00

 eigenvalues of (default mixing * dielectric matrix)
  average eigenvalue GAMMA=   1.7899
  3.2056  2.4935  0.9935  1.4222  1.3124  1.3124

 Free energy of the ion-electron system (eV)
  ---------------------------------------------------
  alpha Z        PSCENC =       485.41370415
  Ewald energy   TEWEN  =     -9422.78030869
  -1/2 Hartree   DENC   =     -5539.38245072
  -exchange  EXHF       =         0.00000000
  -V(xc)+E(xc)   XCENC  =      1029.09526759
  PAW double counting   =     10659.38632539   -10860.77009684
  entropy T*S    EENTRO =         0.00000000
  eigenvalues    EBANDS =     -1939.65257582
  atomic energy  EATOM  =     15248.23617661
  ---------------------------------------------------
  free energy    TOTEN  =      -340.45395834 eV

  energy without entropy =     -340.45395834  energy(sigma->0) =     -340.45395834


--------------------------------------------------------------------------------------------------------




----------------------------------------- Iteration    1(  12)  ---------------------------------------


    POTLOK:  cpu time    0.02: real time    0.02
    SETDIJ:  cpu time    0.00: real time    0.01
    EDDIAG:  cpu time    3.58: real time    3.57
  RMM-DIIS:  cpu time   16.33: real time   16.34
    ORTHCH:  cpu time    1.44: real time    1.44
 BZINTS: Fermi energy:  0.103307;224.000000 electrons
         Band energy:***********;  BLOECHL correction:  0.000000
       DOS:  cpu time    0.04: real time    0.04
    CHARGE:  cpu time    0.45: real time    0.45
    MIXING:  cpu time    0.00: real time    0.00
    --------------------------------------------
      LOOP:  cpu time   21.87: real time   21.88

 eigenvalue-minimisations  : 14155
 total energy-change (2. order) : 0.9673767E-03  (-0.5848651E-03)
 number of electron     224.0000137 magnetization 
 augmentation part       30.6027797 magnetization 

 Broyden mixing:
  rms(total) = 0.75572E-02    rms(broyden)= 0.75508E-02
  rms(prec ) = 0.95941E-02
  weight for this iteration     100.00

 eigenvalues of (default mixing * dielectric matrix)
  average eigenvalue GAMMA=   1.8735
  3.8878  2.4835  2.2509  1.3442  0.9645  1.0920  1.0920

 Free energy of the ion-electron system (eV)
  ---------------------------------------------------
  alpha Z        PSCENC =       485.41370415
  Ewald energy   TEWEN  =     -9422.78030869
  -1/2 Hartree   DENC   =     -5541.69559427
  -exchange  EXHF       =         0.00000000
  -V(xc)+E(xc)   XCENC  =      1029.17416868
  PAW double counting   =     10658.92547782   -10860.37458073
  entropy T*S    EENTRO =         0.00000000
  eigenvalues    EBANDS =     -1937.35203453
  atomic energy  EATOM  =     15248.23617661
  ---------------------------------------------------
  free energy    TOTEN  =      -340.45299096 eV

  energy without entropy =     -340.45299096  energy(sigma->0) =     -340.45299096


--------------------------------------------------------------------------------------------------------




----------------------------------------- Iteration    1(  13)  ---------------------------------------


    POTLOK:  cpu time    0.02: real time    0.02
    SETDIJ:  cpu time    0.01: real time    0.01
    EDDIAG:  cpu time    3.57: real time    3.57
  RMM-DIIS:  cpu time   15.21: real time   15.21
    ORTHCH:  cpu time    1.44: real time    1.44
 BZINTS: Fermi energy:  0.091581;224.000000 electrons
         Band energy:***********;  BLOECHL correction:  0.000000
       DOS:  cpu time    0.04: real time    0.04
    CHARGE:  cpu time    0.45: real time    0.45
    MIXING:  cpu time    0.00: real time    0.00
    --------------------------------------------
      LOOP:  cpu time   20.74: real time   20.74

 eigenvalue-minimisations  : 13293
 total energy-change (2. order) : 0.1237068E-03  (-0.9678758E-04)
 number of electron     224.0000137 magnetization 
 augmentation part       30.6065150 magnetization 

 Broyden mixing:
  rms(total) = 0.15918E-02    rms(broyden)= 0.15888E-02
  rms(prec ) = 0.20330E-02
  weight for this iteration     100.00

 eigenvalues of (default mixing * dielectric matrix)
  average eigenvalue GAMMA=   1.8805
  4.3123  2.5884  2.2252  1.5159  0.9543  1.1934  1.1274  1.1274

 Free energy of the ion-electron system (eV)
  ---------------------------------------------------
  alpha Z        PSCENC =       485.41370415
  Ewald energy   TEWEN  =     -9422.78030869
  -1/2 Hartree   DENC   =     -5541.08875933
  -exchange  EXHF       =         0.00000000
  -V(xc)+E(xc)   XCENC  =      1029.12437341
  PAW double counting   =     10658.14914844   -10859.58079449
  entropy T*S    EENTRO =         0.00000000
  eigenvalues    EBANDS =     -1937.92640736
  atomic energy  EATOM  =     15248.23617661
  ---------------------------------------------------
  free energy    TOTEN  =      -340.45286725 eV

  energy without entropy =     -340.45286725  energy(sigma->0) =     -340.45286725


--------------------------------------------------------------------------------------------------------




----------------------------------------- Iteration    1(  14)  ---------------------------------------


    POTLOK:  cpu time    0.02: real time    0.02
    SETDIJ:  cpu time    0.01: real time    0.01
    EDDIAG:  cpu time    3.58: real time    3.59
  RMM-DIIS:  cpu time   10.93: real time   10.93
    ORTHCH:  cpu time    1.44: real time    1.44
 BZINTS: Fermi energy:  0.078232;224.000000 electrons
         Band energy:***********;  BLOECHL correction:  0.000000
       DOS:  cpu time    0.04: real time    0.04
    --------------------------------------------
      LOOP:  cpu time   16.02: real time   16.03

 eigenvalue-minimisations  :  9164
 total energy-change (2. order) :-0.2935842E-05  (-0.9330026E-05)
 number of electron     224.0000137 magnetization 
 augmentation part       30.6065150 magnetization 

 Free energy of the ion-electron system (eV)
  ---------------------------------------------------
  alpha Z        PSCENC =       485.41370415
  Ewald energy   TEWEN  =     -9422.78030869
  -1/2 Hartree   DENC   =     -5540.95939186
  -exchange  EXHF       =         0.00000000
  -V(xc)+E(xc)   XCENC  =      1029.11254040
  PAW double counting   =     10658.08895067   -10859.51832378
  entropy T*S    EENTRO =         0.00000000
  eigenvalues    EBANDS =     -1938.04621769
  atomic energy  EATOM  =     15248.23617661
  ---------------------------------------------------
  free energy    TOTEN  =      -340.45287019 eV

  energy without entropy =     -340.45287019  energy(sigma->0) =     -340.45287019


--------------------------------------------------------------------------------------------------------




 average (electrostatic) potential at core
  the test charge radii are     0.9943  0.6991  0.7167  0.5201  0.8577  0.7089  0.7215
  (the norm of the test charge is              1.0000)
       1 -36.4996       2 -36.4992       3 -36.4995       4 -36.4993       5 -52.2005
       6 -52.2009       7 -52.2008       8 -52.2004       9 -77.8418      10 -77.8415
      11 -77.8420      12 -77.3330      13 -77.3324      14 -77.1729      15 -77.1728
      16 -77.1729      17 -77.1730      18 -77.7913      19 -77.7907      20 -77.7912
      21 -77.7910      22 -77.8417      23 -77.3326      24 -77.3321      25 -36.3226
      26 -36.3231      27 -36.3223      28 -36.3222      29 -35.2697      30 -35.2701
[...]
   0.415E+02 0.408E+01 0.698E+01   -.419E+02 -.353E+01 -.619E+01   0.426E+00 -.565E+00 -.803E+00   -.101E-03 -.783E-04 -.258E-03
   -.415E+02 0.408E+01 -.698E+01   0.419E+02 -.353E+01 0.619E+01   -.426E+00 -.565E+00 0.803E+00   0.102E-03 -.802E-04 0.265E-03
   -.415E+02 -.408E+01 -.698E+01   0.419E+02 0.353E+01 0.619E+01   -.426E+00 0.565E+00 0.803E+00   0.998E-04 0.783E-04 0.264E-03
   0.415E+02 -.408E+01 0.698E+01   -.419E+02 0.353E+01 -.619E+01   0.426E+00 0.565E+00 -.803E+00   -.999E-04 0.798E-04 -.269E-03
   0.134E+03 -.676E+01 0.541E+02   -.139E+03 0.719E+01 -.590E+02   0.525E+01 -.407E+00 0.480E+01   -.515E-02 0.178E-03 -.360E-02
   -.134E+03 -.676E+01 -.541E+02   0.139E+03 0.719E+01 0.590E+02   -.525E+01 -.407E+00 -.480E+01   0.514E-02 0.180E-03 0.362E-02
   -.134E+03 0.676E+01 -.541E+02   0.139E+03 -.719E+01 0.590E+02   -.525E+01 0.407E+00 -.480E+01   0.515E-02 -.178E-03 0.360E-02
   0.134E+03 0.676E+01 0.541E+02   -.139E+03 -.719E+01 -.590E+02   0.525E+01 0.407E+00 0.480E+01   -.514E-02 -.180E-03 -.362E-02
   0.264E+03 0.200E+02 0.273E+02   -.273E+03 -.295E+02 -.319E+02   0.843E+01 0.955E+01 0.454E+01   0.876E-04 0.219E-02 0.257E-02
   -.264E+03 0.200E+02 -.273E+02   0.272E+03 -.295E+02 0.319E+02   -.843E+01 0.955E+01 -.454E+01   -.895E-04 0.217E-02 -.251E-02
   -.264E+03 -.200E+02 -.273E+02   0.273E+03 0.295E+02 0.319E+02   -.843E+01 -.955E+01 -.454E+01   -.102E-03 -.219E-02 -.257E-02
   -.186E+03 0.461E+02 -.315E+02   0.194E+03 -.676E+02 0.353E+02   -.724E+01 0.213E+02 -.377E+01   -.254E-02 0.376E-02 -.170E-03
   0.186E+03 0.461E+02 0.315E+02   -.194E+03 -.676E+02 -.353E+02   0.724E+01 0.213E+02 0.377E+01   0.254E-02 0.374E-02 0.135E-03
   -.200E+03 -.742E+01 0.210E+02   0.211E+03 0.114E+02 -.424E+02   -.110E+02 -.398E+01 0.214E+02   -.369E-02 -.660E-03 0.381E-02
   0.200E+03 -.739E+01 -.210E+02   -.211E+03 0.114E+02 0.424E+02   0.110E+02 -.398E+01 -.214E+02   0.367E-02 -.645E-03 -.374E-02
   0.200E+03 0.744E+01 -.210E+02   -.211E+03 -.114E+02 0.424E+02   0.110E+02 0.398E+01 -.214E+02   0.370E-02 0.661E-03 -.379E-02
   -.200E+03 0.741E+01 0.210E+02   0.211E+03 -.114E+02 -.424E+02   -.110E+02 0.398E+01 0.214E+02   -.367E-02 0.644E-03 0.372E-02
   -.417E+02 0.381E+01 -.435E+01   0.603E+02 -.463E+01 0.581E+01   -.186E+02 0.831E+00 -.148E+01   -.297E-02 0.703E-03 0.754E-03
   0.417E+02 0.379E+01 0.432E+01   -.603E+02 -.464E+01 -.582E+01   0.186E+02 0.831E+00 0.148E+01   0.295E-02 0.685E-03 -.675E-03
   0.416E+02 -.379E+01 0.431E+01   -.603E+02 0.463E+01 -.582E+01   0.186E+02 -.831E+00 0.148E+01   0.296E-02 -.706E-03 -.739E-03
   -.417E+02 -.377E+01 -.431E+01   0.603E+02 0.464E+01 0.582E+01   -.186E+02 -.831E+00 -.148E+01   -.295E-02 -.687E-03 0.656E-03
   0.264E+03 -.199E+02 0.273E+02   -.273E+03 0.295E+02 -.319E+02   0.843E+01 -.955E+01 0.454E+01   0.922E-04 -.217E-02 0.251E-02
   0.186E+03 -.461E+02 0.316E+02   -.194E+03 0.676E+02 -.353E+02   0.724E+01 -.213E+02 0.377E+01   0.253E-02 -.375E-02 0.202E-03
   -.186E+03 -.461E+02 -.315E+02   0.194E+03 0.676E+02 0.353E+02   -.724E+01 -.213E+02 -.377E+01   -.253E-02 -.373E-02 -.147E-03
   -.201E+02 0.298E+02 0.316E+01   0.227E+02 -.343E+02 -.406E+01   -.268E+01 0.464E+01 0.918E+00   0.326E-03 -.534E-03 -.512E-04
   0.201E+02 0.298E+02 -.316E+01   -.227E+02 -.343E+02 0.406E+01   0.268E+01 0.464E+01 -.918E+00   -.322E-03 -.533E-03 0.583E-04
   0.201E+02 -.298E+02 -.316E+01   -.227E+02 0.343E+02 0.406E+01   0.268E+01 -.464E+01 -.918E+00   -.326E-03 0.533E-03 0.511E-04
   -.201E+02 -.298E+02 0.316E+01   0.227E+02 0.343E+02 -.406E+01   -.268E+01 -.464E+01 0.918E+00   0.322E-03 0.533E-03 -.585E-04
   0.439E+02 0.190E+01 -.143E+01   -.496E+02 -.219E+01 0.341E+01   0.572E+01 0.290E+00 -.202E+01   -.643E-03 0.297E-04 -.554E-03
   -.439E+02 0.190E+01 0.143E+01   0.496E+02 -.219E+01 -.341E+01   -.572E+01 0.290E+00 0.202E+01   0.643E-03 0.301E-04 0.558E-03
   -.439E+02 -.190E+01 0.143E+01   0.496E+02 0.219E+01 -.341E+01   -.572E+01 -.290E+00 0.202E+01   0.643E-03 -.299E-04 0.555E-03
   0.439E+02 -.190E+01 -.143E+01   -.496E+02 0.219E+01 0.341E+01   0.572E+01 -.290E+00 -.202E+01   -.643E-03 -.300E-04 -.559E-03
   0.258E+02 -.329E+02 0.163E+02   -.250E+02 0.380E+02 -.189E+02   -.802E+00 -.525E+01 0.259E+01   -.927E-03 0.103E-03 -.492E-03
   -.258E+02 -.329E+02 -.163E+02   0.250E+02 0.380E+02 0.189E+02   0.802E+00 -.525E+01 -.259E+01   0.923E-03 0.103E-03 0.494E-03
   -.258E+02 0.329E+02 -.163E+02   0.250E+02 -.380E+02 0.189E+02   0.802E+00 0.525E+01 -.259E+01   0.927E-03 -.103E-03 0.493E-03
   0.258E+02 0.329E+02 0.163E+02   -.250E+02 -.380E+02 -.189E+02   -.802E+00 0.525E+01 0.259E+01   -.924E-03 -.103E-03 -.494E-03
   0.649E+01 0.191E+01 0.261E+02   -.126E+02 -.235E+01 -.303E+02   0.618E+01 0.451E+00 0.433E+01   -.351E-03 -.875E-04 -.912E-03
   0.258E+02 0.255E+02 0.221E+02   -.250E+02 -.299E+02 -.259E+02   -.834E+00 0.450E+01 0.388E+01   -.911E-03 -.205E-04 -.370E-03
   -.258E+02 0.255E+02 -.221E+02   0.250E+02 -.299E+02 0.259E+02   0.834E+00 0.450E+01 -.388E+01   0.907E-03 -.200E-04 0.370E-03
   -.258E+02 -.255E+02 -.221E+02   0.250E+02 0.299E+02 0.259E+02   0.834E+00 -.450E+01 -.388E+01   0.911E-03 0.202E-04 0.370E-03
   0.258E+02 -.255E+02 0.221E+02   -.250E+02 0.299E+02 -.259E+02   -.834E+00 -.450E+01 0.388E+01   -.908E-03 0.199E-04 -.369E-03
   0.313E+02 -.260E+02 -.162E+02   -.307E+02 0.314E+02 0.207E+02   -.595E+00 -.556E+01 -.458E+01   -.145E-03 -.133E-03 0.259E-03
   -.313E+02 -.260E+02 0.162E+02   0.307E+02 0.314E+02 -.207E+02   0.595E+00 -.556E+01 0.458E+01   0.143E-03 -.132E-03 -.248E-03
   -.313E+02 0.260E+02 0.162E+02   0.307E+02 -.314E+02 -.207E+02   0.595E+00 0.556E+01 0.458E+01   0.143E-03 0.133E-03 -.261E-03
   0.313E+02 0.260E+02 -.162E+02   -.307E+02 -.314E+02 0.207E+02   -.595E+00 0.556E+01 -.458E+01   -.142E-03 0.132E-03 0.248E-03
   -.116E+02 0.517E+01 0.135E+02   0.181E+02 -.589E+01 -.165E+02   -.664E+01 0.747E+00 0.310E+01   -.308E-04 -.726E-07 0.261E-03
   0.116E+02 0.517E+01 -.135E+02   -.181E+02 -.589E+01 0.165E+02   0.664E+01 0.747E+00 -.310E+01   0.278E-04 0.126E-05 -.252E-03
   0.116E+02 -.517E+01 -.135E+02   -.181E+02 0.589E+01 0.165E+02   0.664E+01 -.747E+00 -.310E+01   0.303E-04 0.287E-06 -.264E-03
   -.116E+02 -.517E+01 0.135E+02   0.181E+02 0.589E+01 -.165E+02   -.664E+01 -.747E+00 0.310E+01   -.263E-04 -.126E-05 0.254E-03
   0.403E+02 0.321E+02 -.139E+02   -.410E+02 -.382E+02 0.178E+02   0.738E+00 0.623E+01 -.400E+01   -.137E-03 0.167E-04 0.321E-03
   -.403E+02 0.321E+02 0.139E+02   0.410E+02 -.382E+02 -.178E+02   -.738E+00 0.623E+01 0.400E+01   0.135E-03 0.172E-04 -.310E-03
   -.403E+02 -.321E+02 0.139E+02   0.410E+02 0.382E+02 -.178E+02   -.738E+00 -.623E+01 0.400E+01   0.134E-03 -.171E-04 -.322E-03
   0.403E+02 -.321E+02 -.139E+02   -.410E+02 0.382E+02 0.178E+02   0.738E+00 -.623E+01 -.400E+01   -.134E-03 -.173E-04 0.310E-03
   -.649E+01 0.191E+01 -.261E+02   0.126E+02 -.235E+01 0.303E+02   -.618E+01 0.451E+00 -.433E+01   0.353E-03 -.866E-04 0.920E-03
   -.649E+01 -.191E+01 -.261E+02   0.126E+02 0.235E+01 0.303E+02   -.618E+01 -.451E+00 -.433E+01   0.352E-03 0.876E-04 0.912E-03
   0.649E+01 -.191E+01 0.261E+02   -.126E+02 0.235E+01 -.303E+02   0.618E+01 -.451E+00 0.433E+01   -.355E-03 0.871E-04 -.921E-03
   -.629E+01 0.119E+01 -.268E+01   0.602E+01 -.826E+00 0.244E+01   0.268E+00 -.390E+00 0.219E+00   0.631E-04 -.100E-03 -.167E-03
   -.629E+01 -.119E+01 -.268E+01   0.602E+01 0.830E+00 0.244E+01   0.268E+00 0.390E+00 0.219E+00   0.726E-04 0.106E-03 -.196E-03
   0.629E+01 -.119E+01 0.268E+01   -.602E+01 0.827E+00 -.244E+01   -.268E+00 0.390E+00 -.219E+00   -.630E-04 0.101E-03 0.160E-03
   0.629E+01 0.119E+01 0.268E+01   -.602E+01 -.827E+00 -.244E+01   -.268E+00 -.390E+00 -.219E+00   -.725E-04 -.104E-03 0.203E-03
   0.150E+03 0.128E+01 0.289E+01   -.150E+03 -.204E+00 -.215E+01   -.709E-02 -.107E+01 -.615E+00   0.254E-02 -.958E-03 0.386E-02
   -.150E+03 0.129E+01 -.290E+01   0.150E+03 -.204E+00 0.215E+01   0.709E-02 -.107E+01 0.615E+00   -.256E-02 -.951E-03 -.381E-02
   -.150E+03 -.127E+01 -.290E+01   0.150E+03 0.205E+00 0.215E+01   0.709E-02 0.107E+01 0.615E+00   -.255E-02 0.958E-03 -.387E-02
   0.150E+03 -.128E+01 0.290E+01   -.150E+03 0.204E+00 -.215E+01   -.709E-02 0.107E+01 -.615E+00   0.257E-02 0.952E-03 0.381E-02
   -.671E+02 -.210E+02 -.685E+02   0.770E+02 0.393E+02 0.958E+02   -.995E+01 -.184E+02 -.273E+02   0.215E-02 -.109E-02 -.131E-02
   0.671E+02 -.210E+02 0.685E+02   -.770E+02 0.393E+02 -.958E+02   0.995E+01 -.184E+02 0.273E+02   -.213E-02 -.109E-02 0.136E-02
   0.671E+02 0.210E+02 0.685E+02   -.770E+02 -.393E+02 -.958E+02   0.995E+01 0.184E+02 0.273E+02   -.215E-02 0.109E-02 0.131E-02
   -.671E+02 0.210E+02 -.685E+02   0.770E+02 -.393E+02 0.958E+02   -.995E+01 0.184E+02 -.273E+02   0.213E-02 0.109E-02 -.136E-02
 -----------------------------------------------------------------------------------------------
   -.138E+00 0.273E+00 0.556E-02   -.995E-13 0.128E-12 0.853E-13   0.711E-14 0.000E+00 0.000E+00   -.458E-05 0.176E-04 0.745E-05
 
 
 POSITION                                       TOTAL-FORCE (eV/Angst)
 -----------------------------------------------------------------------------------
      2.98605      3.59843      8.13177         0.002049     -0.012080     -0.012098
      6.47331      1.48467      5.35473        -0.002049     -0.012080      0.012098
      7.04579      0.62908      1.06561        -0.002049      0.012080      0.012098
      3.55852      2.74286      3.84265         0.002049      0.012080     -0.012098
      0.77551      1.10658      4.49999        -0.043366      0.022260     -0.084039
      8.68386      3.22034      8.98650         0.043366      0.022260      0.084039
      9.25632      3.12095      4.69738         0.043366     -0.022260      0.084039
      1.34798      1.00718      0.21086        -0.043366     -0.022260     -0.084039
      1.83276      3.01694      7.32313         0.039153     -0.027372     -0.064164
      7.62662      0.90319      6.16337        -0.039153     -0.027372      0.064164
      8.19908      1.21058      1.87425        -0.039153      0.027372      0.064164
      7.09519      3.35943      1.31420        -0.018948     -0.100538     -0.049910
      3.50911      1.24568      3.59404         0.018948     -0.100538      0.049910
      6.14161      1.00334      8.21150         0.010630     -0.040849     -0.040674
      3.31775      3.11709      5.27500        -0.010630     -0.040849      0.040674
      3.89022      3.22418      0.98588        -0.010630      0.040849      0.040674
      6.71408      1.11043      3.92237         0.010630      0.040849     -0.040674
      4.41578      3.17341      7.70736         0.063203     -0.013314      0.021355
      5.04358      1.05966      5.77915        -0.063203     -0.013314     -0.021355
      5.61606      1.05411      1.49003        -0.063203      0.013314     -0.021355
      4.98826      3.16786      3.41822         0.063203      0.013314      0.021355
      2.40523      3.32433      3.03401         0.039153      0.027372     -0.064164
      2.93665      0.86808      7.88316         0.018948      0.100538      0.049910
      6.52272      2.98183      5.60333        -0.018948      0.100538     -0.049910
     10.24955      0.18583      7.13927        -0.052547      0.095560      0.022223
     -0.79019      2.29958      6.34723         0.052547      0.095560     -0.022223
     -0.21772      4.04169      2.05810         0.052547     -0.095560     -0.022223
     10.82202      1.92794      2.85015        -0.052547     -0.095560      0.022223
     -0.23100      1.05753      4.88622         0.065389     -0.003080     -0.031367
      9.69037      3.17129      8.60029        -0.065389     -0.003080      0.031367
     10.26284      3.16999      4.31116        -0.065389      0.003080      0.031367
      0.34146      1.05622      0.59709         0.065389      0.003080     -0.031367
      0.93695      2.06701      4.02187        -0.015993     -0.053656      0.034365
      9.66736      4.18078      0.88637         0.015993     -0.053656     -0.034365
      9.09489      2.16050      5.17549         0.015993      0.053656     -0.034365
      0.36449      0.04674      8.31100        -0.015993      0.053656      0.034365
      8.94773      1.01045      6.76725         0.069052      0.012852      0.049121
      0.93378      0.29538      3.80440        -0.005301      0.070111      0.036298
      9.67054      2.40914      1.10386         0.005301      0.070111     -0.036298
      9.09806      3.93213      5.39299         0.005301     -0.070111     -0.036298
      0.36131      1.81838      8.09352        -0.005301     -0.070111      0.036298
      1.81542      1.76054      6.21973        -0.003126     -0.134240     -0.112830
      7.64395      3.87430      7.26678         0.003126     -0.134240      0.112830
      8.21642      2.46698      2.97766         0.003126      0.134240      0.112830
      2.38788      0.35322      1.93061        -0.003126      0.134240     -0.112830
      2.69085      0.86260      5.13415        -0.125645      0.030440      0.043568
      6.76851      2.97636      8.35235         0.125645      0.030440     -0.043568
      7.34099      3.36492      4.06322         0.125645     -0.030440     -0.043568
      3.26333      1.25115      0.84503        -0.125645     -0.030440      0.043568
      1.63161      0.10340      6.11794         0.036164      0.119276     -0.092140
      7.82777      2.21716      7.36856        -0.036164      0.119276      0.092140
      8.40022      4.12413      3.07944        -0.036164     -0.119276      0.092140
      2.20407      2.01037      1.82882         0.036164     -0.119276     -0.092140
      0.51164      3.12422      6.71925        -0.069052      0.012852     -0.049121
      1.08410      3.21706      2.43013        -0.069052     -0.012852     -0.049121
      9.52020      1.10330      2.47813         0.069052     -0.012852      0.049121
      4.88469      3.50472      5.98056        -0.007098     -0.026975     -0.018527
      5.45716      2.83654      1.69142        -0.007098      0.026975     -0.018527
      5.14715      0.72279      3.21683         0.007098      0.026975      0.018527
      4.57468      1.39096      7.50595         0.007098     -0.026975      0.018527
      1.75856      0.95909      5.56774         0.169157      0.009259      0.136199
      7.70081      3.07284      7.91877        -0.169157      0.009259     -0.136199
      8.27328      3.26843      3.62964        -0.169157     -0.009259     -0.136199
      2.33103      1.15468      1.27861         0.169157     -0.009259      0.136199
      9.74982      1.07636      7.33578        -0.002485     -0.087219      0.007784
     -0.29045      3.19011      6.15072         0.002485     -0.087219     -0.007784
      0.28202      3.15116      1.86159         0.002485      0.087219     -0.007784
     10.32229      1.03740      3.04666        -0.002485      0.087219      0.007784
 -----------------------------------------------------------------------------------
    total drift:                               -0.137724      0.272711      0.005566


--------------------------------------------------------------------------------------------------------



  FREE ENERGIE OF THE ION-ELECTRON SYSTEM (eV)
  ---------------------------------------------------
  free  energy   TOTEN  =      -340.45287019 eV

  energy  without entropy=     -340.45287019  energy(sigma->0) =     -340.45287019
 


--------------------------------------------------------------------------------------------------------


    POTLOK:  cpu time    0.04: real time    0.03


--------------------------------------------------------------------------------------------------------


     LOOP+:  cpu time  340.32: real time  340.41
    4ORBIT:  cpu time    0.00: real time    0.00
 


 total charge     
 
# of ion     s       p       d       tot
----------------------------------------
  1        0.475   0.960   0.000   1.435
  2        0.475   0.960   0.000   1.435
  3        0.475   0.960   0.000   1.435
  4        0.475   0.960   0.000   1.435
  5        0.853   1.813   0.000   2.665
  6        0.853   1.813   0.000   2.665
  7        0.853   1.813   0.000   2.665
  8        0.853   1.813   0.000   2.665
  9        1.740   4.447   0.000   6.187
 10        1.740   4.447   0.000   6.187
 11        1.740   4.447   0.000   6.187
 12        1.737   4.456   0.000   6.194
 13        1.737   4.456   0.000   6.194
 14        1.737   4.458   0.000   6.195
 15        1.737   4.458   0.000   6.195
 16        1.737   4.458   0.000   6.195
 17        1.737   4.458   0.000   6.195
 18        1.734   4.456   0.000   6.190
 19        1.734   4.456   0.000   6.190
 20        1.734   4.456   0.000   6.190
 21        1.734   4.456   0.000   6.190
 22        1.740   4.447   0.000   6.187
 23        1.737   4.456   0.000   6.194
 24        1.737   4.456   0.000   6.194
 25        0.540   0.125   0.000   0.665
 26        0.540   0.125   0.000   0.665
 27        0.540   0.125   0.000   0.665
 28        0.540   0.125   0.000   0.665
 29        0.662   0.052   0.000   0.713
 30        0.662   0.052   0.000   0.713
 31        0.662   0.052   0.000   0.713
 32        0.662   0.052   0.000   0.713
 33        0.660   0.049   0.000   0.709
 34        0.660   0.049   0.000   0.709
 35        0.660   0.049   0.000   0.709
 36        0.660   0.049   0.000   0.709
 37        0.603   0.145   0.000   0.749
 38        0.665   0.051   0.000   0.716
 39        0.665   0.051   0.000   0.716
 40        0.665   0.051   0.000   0.716
 41        0.665   0.051   0.000   0.716
 42        0.606   0.091   0.000   0.697
 43        0.606   0.091   0.000   0.697
 44        0.606   0.091   0.000   0.697
 45        0.606   0.091   0.000   0.697
 46        0.609   0.088   0.000   0.697
 47        0.609   0.088   0.000   0.697
 48        0.609   0.088   0.000   0.697
 49        0.609   0.088   0.000   0.697
 50        0.625   0.090   0.000   0.715
 51        0.625   0.090   0.000   0.715
 52        0.625   0.090   0.000   0.715
 53        0.625   0.090   0.000   0.715
 54        0.603   0.145   0.000   0.749
 55        0.603   0.145   0.000   0.749
 56        0.603   0.145   0.000   0.749
 57        2.119   0.363   0.000   2.482
 58        2.119   0.363   0.000   2.482
 59        2.119   0.363   0.000   2.482
 60        2.119   0.363   0.000   2.482
 61        1.228   2.844   0.000   4.072
 62        1.228   2.844   0.000   4.072
 63        1.228   2.844   0.000   4.072
 64        1.228   2.844   0.000   4.072
 65        1.563   3.682   0.000   5.244
 66        1.563   3.682   0.000   5.244
 67        1.563   3.682   0.000   5.244
 68        1.563   3.682   0.000   5.244
------------------------------------------------
tot       72.624 112.676   0.000 185.300
 
 BZINTS: Fermi energy:  0.078232;224.000000 electrons
         Band energy:***********;  BLOECHL correction:  0.000000

 total amount of memory used by VASP on root node    75437. kBytes
========================================================================

   base      :      30000. kBytes
   nonl-proj :      23542. kBytes
   fftplans  :        488. kBytes
   grid      :        884. kBytes
   one-center:         27. kBytes
   wavefun   :      20496. kBytes
 
  
  
 General timing and accounting informations for this job:
 ========================================================
  
                  Total CPU time used (sec):      382.512
                            User time (sec):      381.568
                          System time (sec):        0.944
                         Elapsed time (sec):      382.951
  
                   Maximum memory used (kb):      126332.
                   Average memory used (kb):           0.
  
                          Minor page faults:        43798
                          Major page faults:            0
                 Voluntary context switches:          582
