 running on   48 total cores
 distrk:  each k-point on   48 cores,    1 groups
 distr:  one band on    8 cores,    6 groups
 using from now: INCAR     
 vasp.5.3.2 13Sep12 (build Sep 19 2012 13:12:15) complex                         
 POSCAR found type information on POSCAR  Be C  F  H  Li N  O 
 POSCAR found :  7 types and      68 ions
 scaLAPACK will be used

 ----------------------------------------------------------------------------- 
|                                                                             |
|  ADVICE TO THIS USER RUNNING 'VASP/VAMP'   (HEAR YOUR MASTER'S VOICE ...):  |
|                                                                             |
|      You have a (more or less) 'large supercell' and for larger cells       |
|      it might be more efficient to use real space projection opertators     |
|      So try LREAL= Auto  in the INCAR   file.                               |
|      Mind: At the moment your POTCAR file does not contain real space       |
|       projectors, and has to be modified,  BUT if you                       |
|      want to do an extremely  accurate calculation you might also keep the  |
|      reciprocal projection scheme          (i.e. LREAL=.FALSE.)             |
|                                                                             |
 ----------------------------------------------------------------------------- 

 LDA part: xc-table for Pade appr. of Perdew
 POSCAR, INCAR and KPOINTS ok, starting setup
 WARNING: small aliasing (wrap around) errors must be expected
 FFT: planning ...
 WAVECAR not read
 WARNING: chargedensity file is incomplete
 WARNING: random wavefunctions but no delay for mixing, default for NELMDL
 entering main loop
       N       E                     dE             d eps       ncg     rms          rms(c)
DAV:   1     0.147827886919E+04    0.14783E+04   -0.12481E+05 10560   0.148E+03
DAV:   2    -0.246400759773E+03   -0.17247E+04   -0.16684E+04 12180   0.370E+02
DAV:   3    -0.363251494352E+03   -0.11685E+03   -0.11605E+03 12834   0.113E+02
DAV:   4    -0.365425002975E+03   -0.21735E+01   -0.21644E+01 12876   0.181E+01
DAV:   5    -0.365474966763E+03   -0.49964E-01   -0.49869E-01 12984   0.268E+00    0.305E+01
RMM:   6    -0.343586022387E+03    0.21889E+02   -0.79087E+01 12302   0.194E+01    0.119E+01
RMM:   7    -0.340812501836E+03    0.27735E+01   -0.59880E+00 14902   0.591E+00    0.663E+00
RMM:   8    -0.340500528716E+03    0.31197E+00   -0.13599E+00 13467   0.336E+00    0.107E+00
RMM:   9    -0.340472996882E+03    0.27532E-01   -0.11917E-01 14177   0.112E+00    0.438E-01
RMM:  10    -0.340459589417E+03    0.13407E-01   -0.42535E-02 14042   0.470E-01    0.209E-01
RMM:  11    -0.340453958335E+03    0.56311E-02   -0.17609E-02 13642   0.310E-01    0.138E-01
RMM:  12    -0.340452990958E+03    0.96738E-03   -0.58487E-03 14155   0.177E-01    0.756E-02
RMM:  13    -0.340452867252E+03    0.12371E-03   -0.96788E-04 13293   0.880E-02    0.159E-02
RMM:  14    -0.340452870188E+03   -0.29358E-05   -0.93300E-05  9164   0.313E-02
   1 F= -.34045287E+03 E0= -.34045287E+03  d E =0.000000E+00
Application 17398467 resources: utime ~18333s, stime ~44s, Rss ~126340, inblocks ~316273, outblocks ~439432
