unknown system                          
 1
    11.176774    0.000000    0.619130
     0.000000    4.227517    0.000000
    -1.144938    0.000000    8.578247
   Be   C    F    H    Li   N    O 
   4   4  16  32   4   4   4
Direct configuration=     1
   0.36159953  0.85119226  0.92185415
   0.63839989  0.35119194  0.57814576
   0.63840089  0.14880601  0.07814611
   0.36159964  0.64881107  0.42185456
   0.12221987  0.26175647  0.51576037
   0.87778031  0.76175679  0.98423831
   0.87777954  0.73824654  0.48423879
   0.12221986  0.23824385  0.01575963
   0.24958484  0.71364344  0.83567240
   0.75041634  0.21364549  0.66432738
   0.75041557  0.28635720  0.16432785
   0.64573514  0.79465790  0.10659588
   0.35426427  0.29465994  0.39340254
   0.64280447  0.23733552  0.91085277
   0.35719494  0.73733347  0.58914714
   0.35719506  0.76266512  0.08914755
   0.64280447  0.26266717  0.41085203
   0.48354944  0.75065571  0.86357734
   0.51645009  0.25065776  0.63642373
   0.51645109  0.24934493  0.13642408
   0.48355021  0.74934288  0.36357537
   0.24958496  0.78635515  0.33567281
   0.35426504  0.20534038  0.89340207
   0.64573514  0.70533833  0.60659662
   0.99493924  0.04395724  0.76044357
   0.00506017  0.54395520  0.73955634
   0.00506017  0.95604340  0.23955559
   0.99493935  0.45604544  0.26044398
   0.03740548  0.25015391  0.56690615
   0.96259494  0.75015424  0.93309485
   0.96259493  0.74984673  0.43309410
   0.03740459  0.24984404  0.06690547
   0.13089042  0.48894182  0.45939825
   0.86910987  0.98894451  0.04060010
   0.86910975  0.51105646  0.54059969
   0.13089131  0.01105613  0.95939893
   0.87490865  0.23901735  0.72573888
   0.12803097  0.06987080  0.43425330
   0.87197044  0.56987112  0.06574730
   0.87196956  0.93012748  0.56574811
   0.12803086  0.43012952  0.93425289
   0.23496500  0.41644774  0.70809991
   0.76503541  0.91644806  0.79190110
   0.76503553  0.58355291  0.29190151
   0.23496423  0.08355259  0.20810038
   0.29984742  0.20404411  0.57686672
   0.70015199  0.70404443  0.92313318
   0.70015288  0.79595653  0.42313237
   0.29984842  0.29595385  0.07686707
   0.21743336  0.02445880  0.69749918
   0.78256782  0.52445912  0.80250060
   0.78256616  0.97554421  0.30250114
   0.21743259  0.47554389  0.19749966
   0.12509165  0.73902004  0.77426097
   0.12509088  0.76098092  0.27426144
   0.87490877  0.26098060  0.22573929
   0.50472587  0.82902559  0.66074907
   0.50472575  0.67097064  0.16074717
   0.49527467  0.17097269  0.33925234
   0.49527455  0.32902527  0.83925193
   0.22218626  0.22686838  0.63301717
   0.77781416  0.72686634  0.86698383
   0.77781415  0.77313226  0.36698309
   0.22218626  0.27313431  0.13301642
   0.95288536  0.25460807  0.78638673
   0.04711494  0.75460602  0.71361312
   0.04711494  0.74539258  0.21361237
   0.95288548  0.24539225  0.28638714
