 vasp.5.3.2 13Sep12 (build Apr 01 2013 09:06:40) complex                        
  
 executed on             LinuxIFC date 2013.08.18  21:18:01
 running on    8 total cores
 distrk:  each k-point on    8 cores,    1 groups
 distr:  one band on NCORES_PER_BAND=   4 cores,    2 groups


--------------------------------------------------------------------------------------------------------


 INCAR:
 POTCAR:  PAW_PBE O 08Apr2002                     
 POTCAR:  PAW_PBE Rb_sv 06Sep2000                 
 POTCAR:  PAW_PBE S 17Jan2003                     
 POTCAR:  PAW_PBE O 08Apr2002                     
   VRHFIN =O: s2p4                                                              
   LEXCH  = PE                                                                  
   EATOM  =   432.3788 eV,   31.7789 Ry                                         
                                                                                
   TITEL  = PAW_PBE O 08Apr2002                                                 
   LULTRA =        F    use ultrasoft PP ?                                      
   IUNSCR =        0    unscreen: 0-lin 1-nonlin 2-no                           
   RPACOR =     .000    partial core radius                                     
   POMASS =   16.000; ZVAL   =    6.000    mass and valenz                      
   RCORE  =    1.520    outmost cutoff radius                                   
   RWIGS  =    1.550; RWIGS  =     .820    wigner-seitz radius (au A)           
   ENMAX  =  400.000; ENMIN  =  300.000 eV                                      
   ICORE  =        2    local potential                                         
   LCOR   =        T    correct aug charges                                     
   LPAW   =        T    paw PP                                                  
   EAUG   =  605.392                                                            
   DEXC   =     .000                                                            
   RMAX   =    2.264    core radius for proj-oper                               
   RAUG   =    1.300    factor for augmentation sphere                          
   RDEP   =    1.550    radius for radial grids                                 
   QCUT   =   -5.520; QGAM   =   11.041    optimization parameters              
                                                                                
   Description                                                                  
     l     E      TYP  RCUT    TYP  RCUT                                        
     0   .000     23  1.200                                                     
     0  -.700     23  1.200                                                     
     1   .000     23  1.520                                                     
     1   .600     23  1.520                                                     
     2   .000      7  1.500                                                     
  local pseudopotential read in
  atomic valenz-charges read in
  non local Contribution for L=           0  read in
    real space projection operators read in
  non local Contribution for L=           0  read in
    real space projection operators read in
  non local Contribution for L=           1  read in
    real space projection operators read in
  non local Contribution for L=           1  read in
    real space projection operators read in
    PAW grid and wavefunctions read in
 
   number of l-projection  operators is LMAX  =           4
   number of lm-projection operators is LMMAX =           8
 
 POTCAR:  PAW_PBE Rb_sv 06Sep2000                 
   VRHFIN =Rb: 4s4p5s                                                           
   LEXCH  = PE                                                                  
   EATOM  =   662.0594 eV,   48.6600 Ry                                         
                                                                                
   TITEL  = PAW_PBE Rb_sv 06Sep2000                                             
   LULTRA =        F    use ultrasoft PP ?                                      
   IUNSCR =        1    unscreen: 0-lin 1-nonlin 2-no                           
   RPACOR =    2.200    partial core radius                                     
   POMASS =   85.468; ZVAL   =    9.000    mass and valenz                      
   RCORE  =    2.500    outmost cutoff radius                                   
   RWIGS  =    4.570; RWIGS  =    2.418    wigner-seitz radius (au A)           
   ENMAX  =  220.022; ENMIN  =  165.017 eV                                      
   RCLOC  =    2.200    cutoff for local pot                                    
   LCOR   =        T    correct aug charges                                     
   LPAW   =        T    paw PP                                                  
   EAUG   =  423.861                                                            
   DEXC   =     .000                                                            
   RMAX   =    3.108    core radius for proj-oper                               
   RAUG   =    1.300    factor for augmentation sphere                          
   RDEP   =    2.541    radius for radial grids                                 
   QCUT   =   -4.021; QGAM   =    8.043    optimization parameters              
                                                                                
   Description                                                                  
     l     E      TYP  RCUT    TYP  RCUT                                        
     0   .000     23  2.500                                                     
     0   .000     23  2.500                                                     
     1   .000     23  2.500                                                     
     1   .000     23  2.500                                                     
     2   .000     23  2.500                                                     
  local pseudopotential read in
  partial core-charges read in
  atomic valenz-charges read in
  non local Contribution for L=           0  read in
    real space projection operators read in
  non local Contribution for L=           0  read in
    real space projection operators read in
  non local Contribution for L=           1  read in
    real space projection operators read in
  non local Contribution for L=           1  read in
    real space projection operators read in
  non local Contribution for L=           2  read in
    real space projection operators read in
    PAW grid and wavefunctions read in
 
   number of l-projection  operators is LMAX  =           5
   number of lm-projection operators is LMMAX =          13
 
 POTCAR:  PAW_PBE S 17Jan2003                     
   VRHFIN =S : s2p4                                                             
   LEXCH  = PE                                                                  
   EATOM  =   276.8230 eV,   20.3459 Ry                                         
                                                                                
   TITEL  = PAW_PBE S 17Jan2003                                                 
   LULTRA =        F    use ultrasoft PP ?                                      
   IUNSCR =        1    unscreen: 0-lin 1-nonlin 2-no                           
   RPACOR =    1.500    partial core radius                                     
   POMASS =   32.066; ZVAL   =    6.000    mass and valenz                      
   RCORE  =    1.900    outmost cutoff radius                                   
   RWIGS  =    2.200; RWIGS  =    1.164    wigner-seitz radius (au A)           
   ENMAX  =  280.000; ENMIN  =  194.016 eV                                      
   ICORE  =        2    local potential                                         
   LCOR   =        T    correct aug charges                                     
   LPAW   =        T    paw PP                                                  
   EAUG   =  335.092                                                            
   DEXC   =     .000                                                            
   RMAX   =    2.867    core radius for proj-oper                               
   RAUG   =    1.300    factor for augmentation sphere                          
   RDEP   =    1.954    radius for radial grids                                 
   QCUT   =   -4.360; QGAM   =    8.721    optimization parameters              
                                                                                
   Description                                                                  
     l     E      TYP  RCUT    TYP  RCUT                                        
     0   .000     23  1.900                                                     
     0   .000     23  1.900                                                     
     1   .000     23  1.900                                                     
     1   .000     23  1.900                                                     
     2   .000     23  1.900                                                     
  local pseudopotential read in
  partial core-charges read in
  atomic valenz-charges read in
  non local Contribution for L=           0  read in
    real space projection operators read in
  non local Contribution for L=           0  read in
    real space projection operators read in
  non local Contribution for L=           1  read in
    real space projection operators read in
  non local Contribution for L=           1  read in
    real space projection operators read in
    PAW grid and wavefunctions read in
 
   number of l-projection  operators is LMAX  =           4
   number of lm-projection operators is LMMAX =           8
 
 Optimization of the real space projectors (new method)

 maximal supplied QI-value         = 24.76
 optimisation between [QCUT,QGAM] = [ 11.39, 28.47] = [ 36.31,226.95] Ry 
 Optimized for a Real-space Cutoff    0.93 Angstroem

   l    n(q)    QCUT    max X(q) W(low)/X(q) W(high)/X(q)  e(spline) 
   0      8    11.387     4.192    0.42E-04    0.17E-04    0.17E-07
   0      8    11.387     8.473    0.27E-03    0.17E-03    0.11E-06
   1      7    11.387     2.474    0.76E-04    0.10E-03    0.15E-07
   1      7    11.387     3.912    0.34E-03    0.52E-03    0.97E-07
 Optimization of the real space projectors (new method)

 maximal supplied QI-value         = 15.12
 optimisation between [QCUT,QGAM] = [ 11.34, 28.57] = [ 36.00,228.61] Ry 
 Optimized for a Real-space Cutoff    1.45 Angstroem

   l    n(q)    QCUT    max X(q) W(low)/X(q) W(high)/X(q)  e(spline) 
   0     13    11.338     6.423    0.14E-04    0.31E-06    0.11E-06
   0     13    11.338    16.042    0.37E-04    0.20E-06    0.67E-06
   1     12    11.338     3.765    0.18E-05    0.31E-05    0.74E-07
   1     12    11.338    34.154    0.70E-04    0.80E-04    0.26E-05
   2     12    11.338    16.736    0.18E-05    0.99E-05    0.26E-06
 Optimization of the real space projectors (new method)

 maximal supplied QI-value         = 19.84
 optimisation between [QCUT,QGAM] = [ 11.31, 28.57] = [ 35.82,228.61] Ry 
 Optimized for a Real-space Cutoff    1.08 Angstroem

   l    n(q)    QCUT    max X(q) W(low)/X(q) W(high)/X(q)  e(spline) 
   0      9    11.310     5.487    0.13E-04    0.62E-06    0.84E-08
   0      9    11.310    85.627    0.68E-04    0.52E-04    0.71E-07
   1      9    11.310     3.530    0.85E-05    0.12E-04    0.17E-07
   1      9    11.310    42.714    0.80E-04    0.47E-04    0.25E-06
PAW_PBE O 08Apr2002                     :
 energy of atom  1       EATOM= -432.3788
 kinetic energy error for atom=    0.0224 (will be added to EATOM!!)
PAW_PBE Rb_sv 06Sep2000                 :
 energy of atom  2       EATOM= -662.0594
 kinetic energy error for atom=    0.0007 (will be added to EATOM!!)
PAW_PBE S 17Jan2003                     :
 energy of atom  3       EATOM= -276.8230
 kinetic energy error for atom=    0.0020 (will be added to EATOM!!)
 
 
 POSCAR: S Rb O                                  
  positions in direct lattice
  No initial velocities read in
 exchange correlation table for  LEXCH =        8
   RHO(1)=    0.500       N(1)  =     2000
   RHO(2)=  100.500       N(2)  =     4000
 


--------------------------------------------------------------------------------------------------------


 ion  position               nearest neighbor table
   1  0.193  0.855  0.952-  28 1.50  17 2.95  19 3.02  23 3.08  24 3.24  22 3.25
   2  0.807  0.145  0.452-  25 1.50  20 2.95  18 3.02  22 3.08  21 3.24  23 3.25
   3  0.693  0.645  0.548-  26 1.50  19 2.95  17 3.02  21 3.08  22 3.24  24 3.25
   4  0.693  0.645  0.952-  26 1.50  19 2.95  17 3.02  21 3.08  22 3.24  24 3.25
   5  0.807  0.145  0.048-  25 1.50  20 2.95  18 3.02  22 3.08  21 3.24  23 3.25
   6  0.193  0.855  0.548-  28 1.50  17 2.95  19 3.02  23 3.08  24 3.24  22 3.25
   7  0.307  0.355  0.452-  27 1.50  18 2.95  20 3.02  24 3.08  23 3.24  21 3.25
   8  0.295  0.554  0.250-  27 1.50  17 2.90  19 3.04  24 3.06  24 3.06  21 3.41
   9  0.205  0.054  0.750-  28 1.50  18 2.90  20 3.04  23 3.06  23 3.06  22 3.41
  10  0.795  0.946  0.250-  25 1.50  19 2.90  17 3.04  22 3.06  22 3.06  23 3.41
  11  0.705  0.446  0.750-  26 1.50  20 2.90  18 3.04  21 3.06  21 3.06  24 3.41
  12  0.053  0.412  0.250-  27 1.49  21 3.03  17 3.09  20 3.26  20 3.26  23 3.54
  13  0.447  0.912  0.750-  28 1.49  22 3.03  18 3.09  19 3.26  19 3.26  24 3.54
  14  0.553  0.088  0.250-  25 1.49  23 3.03  19 3.09  18 3.26  18 3.26  21 3.54
  15  0.947  0.588  0.750-  26 1.49  24 3.03  20 3.09  17 3.26  17 3.26  22 3.54
  16  0.307  0.355  0.048-  27 1.50  18 2.95  20 3.02  24 3.08  23 3.24  21 3.25
  17  0.988  0.699  0.250-   8 2.90   1 2.95   6 2.95   4 3.02   3 3.02  10 3.04  12 3.09  15 3.26
                            15 3.26  27 3.59  26 3.75  26 3.75  21 3.97  22 3.98  22 3.98  19 4.15
  18  0.512  0.199  0.750-   9 2.90  16 2.95   7 2.95   5 3.02   2 3.02  11 3.04  13 3.09  14 3.26
                            14 3.26  28 3.59  25 3.75  25 3.75  22 3.97  21 3.98  21 3.98  20 4.15
  19  0.488  0.801  0.250-  10 2.90   4 2.95   3 2.95   1 3.02   6 3.02   8 3.04  14 3.09  13 3.26
                            13 3.26  25 3.59  28 3.75  28 3.75  23 3.97  24 3.98  24 3.98  17 4.15
  20  0.012  0.301  0.750-  11 2.90   5 2.95   2 2.95  16 3.02   7 3.02   9 3.04  15 3.09  12 3.26
                            12 3.26  26 3.59  27 3.75  27 3.75  24 3.97  23 3.98  23 3.98  18 4.15
  21  0.675  0.409  0.250-  12 3.03  11 3.06  11 3.06   4 3.08   3 3.08   5 3.24   2 3.24  16 3.25
                             7 3.25   8 3.41  27 3.49  25 3.52  14 3.54  26 3.60  26 3.60  17 3.97
  22  0.825  0.909  0.750-  13 3.03  10 3.06  10 3.06   5 3.08   2 3.08   4 3.24   3 3.24   1 3.25
                             6 3.25   9 3.41  28 3.49  26 3.52  15 3.54  25 3.60  25 3.60  18 3.97
  23  0.175  0.091  0.250-  14 3.03   9 3.06   9 3.06   1 3.08   6 3.08  16 3.24   7 3.24   5 3.25
                             2 3.25  10 3.41  25 3.49  27 3.52  12 3.54  28 3.60  28 3.60  19 3.97
  24  0.325  0.591  0.750-  15 3.03   8 3.06   8 3.06  16 3.08   7 3.08   1 3.24   6 3.24   4 3.25
                             3 3.25  11 3.41  26 3.49  28 3.52  13 3.54  27 3.60  27 3.60  20 3.97
  25  0.739  0.081  0.250-  14 1.49   5 1.50   2 1.50  10 1.50  23 3.49  21 3.52  19 3.59  22 3.60
                            22 3.60  18 3.75  18 3.75
  26  0.761  0.581  0.750-  15 1.49   4 1.50   3 1.50  11 1.50  24 3.49  22 3.52  20 3.59  21 3.60
                            21 3.60  17 3.75  17 3.75
  27  0.239  0.419  0.250-  12 1.49  16 1.50   7 1.50   8 1.50  21 3.49  23 3.52  17 3.59  24 3.60
                            24 3.60  20 3.75  20 3.75
  28  0.261  0.919  0.750-  13 1.49   1 1.50   6 1.50   9 1.50  22 3.49  24 3.52  18 3.59  23 3.60
                            23 3.60  19 3.75  19 3.75
 
  LATTYP: Found a simple orthorhombic cell.
 ALAT       =     6.0532380000
 B/A-ratio  =     1.3240525154
 C/A-ratio  =     1.7517105721
  
  Lattice vectors:
  
 A1 = (   0.0000000000,   0.0000000000,   6.0532380000)
 A2 = (  -8.0148050000,   0.0000000000,   0.0000000000)
 A3 = (   0.0000000000, -10.6035210000,   0.0000000000)


Analysis of symmetry for initial positions (statically):
=====================================================================
 Subroutine PRICEL returns:
 Original cell was already a primitive cell.
 

 Routine SETGRP: Setting up the symmetry group for a 
 simple orthorhombic supercell.


 Subroutine GETGRP returns: Found  8 space group operations
 (whereof  2 operations were pure point group operations)
 out of a pool of  8 trial point group operations.


The static configuration has the point symmetry S_2 .
 The point group associated with its full space group is D_2h.


Analysis of symmetry for dynamics (positions and initial velocities):
=====================================================================
 Subroutine PRICEL returns:
 Original cell was already a primitive cell.
 

 Routine SETGRP: Setting up the symmetry group for a 
 simple orthorhombic supercell.


 Subroutine GETGRP returns: Found  8 space group operations
 (whereof  2 operations were pure point group operations)
 out of a pool of  8 trial point group operations.


The dynamic configuration has the point symmetry S_2 .
 The point group associated with its full space group is D_2h.
 
 
 KPOINTS: KPOINTS                                 

Automatic generation of k-mesh.
Space group operators:
 irot       det(A)        alpha          n_x          n_y          n_z        tau_x        tau_y        tau_z
    1     1.000000     0.000001     1.000000     0.000000     0.000000     0.000000     0.000000     0.000000
    2    -1.000000     0.000001     1.000000     0.000000     0.000000     0.000000     0.000000     0.000000
    3     1.000000   180.000000     0.000000     1.000000     0.000000    -0.500000    -0.500001     0.000000
    4    -1.000000   180.000000     0.000000     1.000000     0.000000    -0.499999    -0.500000     0.000000
    5     1.000000   180.000000     1.000000     0.000000     0.000000    -0.500000    -0.499999     0.499997
    6    -1.000000   180.000000     1.000000     0.000000     0.000000    -0.500000    -0.499999     0.499998
    7     1.000000   180.000000     0.000000     0.000000     1.000000     0.000000     0.000000     0.499998
    8    -1.000000   180.000000     0.000000     0.000000     1.000000     0.000000     0.000000     0.499997
 
 Subroutine IBZKPT returns following result:
 ===========================================
 
 Found     60 irreducible k-points:
 
 Following reciprocal coordinates:
            Coordinates               Weight
  0.000000  0.000000  0.000000      1.000000
  0.166667  0.000000  0.000000      2.000000
  0.333333  0.000000  0.000000      2.000000
  0.500000  0.000000  0.000000      1.000000
  0.000000  0.250000  0.000000      2.000000
  0.166667  0.250000  0.000000      4.000000
  0.333333  0.250000  0.000000      4.000000
  0.500000  0.250000  0.000000      2.000000
  0.000000  0.500000  0.000000      1.000000
  0.166667  0.500000  0.000000      2.000000
  0.333333  0.500000  0.000000      2.000000
  0.500000  0.500000  0.000000      1.000000
  0.000000  0.000000  0.125000      2.000000
  0.166667  0.000000  0.125000      4.000000
  0.333333  0.000000  0.125000      4.000000
  0.500000  0.000000  0.125000      2.000000
  0.000000  0.250000  0.125000      4.000000
  0.166667  0.250000  0.125000      8.000000
  0.333333  0.250000  0.125000      8.000000
  0.500000  0.250000  0.125000      4.000000
  0.000000  0.500000  0.125000      2.000000
  0.166667  0.500000  0.125000      4.000000
  0.333333  0.500000  0.125000      4.000000
  0.500000  0.500000  0.125000      2.000000
  0.000000  0.000000  0.250000      2.000000
  0.166667  0.000000  0.250000      4.000000
  0.333333  0.000000  0.250000      4.000000
  0.500000  0.000000  0.250000      2.000000
  0.000000  0.250000  0.250000      4.000000
  0.166667  0.250000  0.250000      8.000000
  0.333333  0.250000  0.250000      8.000000
  0.500000  0.250000  0.250000      4.000000
  0.000000  0.500000  0.250000      2.000000
  0.166667  0.500000  0.250000      4.000000
  0.333333  0.500000  0.250000      4.000000
  0.500000  0.500000  0.250000      2.000000
  0.000000  0.000000  0.375000      2.000000
  0.166667  0.000000  0.375000      4.000000
  0.333333  0.000000  0.375000      4.000000
  0.500000  0.000000  0.375000      2.000000
  0.000000  0.250000  0.375000      4.000000
  0.166667  0.250000  0.375000      8.000000
  0.333333  0.250000  0.375000      8.000000
  0.500000  0.250000  0.375000      4.000000
  0.000000  0.500000  0.375000      2.000000
  0.166667  0.500000  0.375000      4.000000
  0.333333  0.500000  0.375000      4.000000
  0.500000  0.500000  0.375000      2.000000
  0.000000  0.000000  0.500000      1.000000
  0.166667  0.000000  0.500000      2.000000
  0.333333  0.000000  0.500000      2.000000
  0.500000  0.000000  0.500000      1.000000
  0.000000  0.250000  0.500000      2.000000
  0.166667  0.250000  0.500000      4.000000
  0.333333  0.250000  0.500000      4.000000
  0.500000  0.250000  0.500000      2.000000
  0.000000  0.500000  0.500000      1.000000
  0.166667  0.500000  0.500000      2.000000
  0.333333  0.500000  0.500000      2.000000
  0.500000  0.500000  0.500000      1.000000
 
 Following cartesian coordinates:
            Coordinates               Weight
  0.000000  0.000000  0.000000      1.000000
  0.020795  0.000000  0.000000      2.000000
  0.041590  0.000000  0.000000      2.000000
  0.062385  0.000000  0.000000      1.000000
  0.000000  0.023577  0.000000      2.000000
  0.020795  0.023577  0.000000      4.000000
  0.041590  0.023577  0.000000      4.000000
  0.062385  0.023577  0.000000      2.000000
  0.000000  0.047154  0.000000      1.000000
  0.020795  0.047154  0.000000      2.000000
  0.041590  0.047154  0.000000      2.000000
  0.062385  0.047154  0.000000      1.000000
  0.000000  0.000000  0.020650      2.000000
  0.020795  0.000000  0.020650      4.000000
  0.041590  0.000000  0.020650      4.000000
  0.062385  0.000000  0.020650      2.000000
  0.000000  0.023577  0.020650      4.000000
  0.020795  0.023577  0.020650      8.000000
  0.041590  0.023577  0.020650      8.000000
  0.062385  0.023577  0.020650      4.000000
  0.000000  0.047154  0.020650      2.000000
  0.020795  0.047154  0.020650      4.000000
  0.041590  0.047154  0.020650      4.000000
  0.062385  0.047154  0.020650      2.000000
  0.000000  0.000000  0.041300      2.000000
  0.020795  0.000000  0.041300      4.000000
  0.041590  0.000000  0.041300      4.000000
  0.062385  0.000000  0.041300      2.000000
  0.000000  0.023577  0.041300      4.000000
  0.020795  0.023577  0.041300      8.000000
  0.041590  0.023577  0.041300      8.000000
  0.062385  0.023577  0.041300      4.000000
  0.000000  0.047154  0.041300      2.000000
  0.020795  0.047154  0.041300      4.000000
  0.041590  0.047154  0.041300      4.000000
  0.062385  0.047154  0.041300      2.000000
  0.000000  0.000000  0.061950      2.000000
  0.020795  0.000000  0.061950      4.000000
  0.041590  0.000000  0.061950      4.000000
  0.062385  0.000000  0.061950      2.000000
  0.000000  0.023577  0.061950      4.000000
  0.020795  0.023577  0.061950      8.000000
  0.041590  0.023577  0.061950      8.000000
  0.062385  0.023577  0.061950      4.000000
  0.000000  0.047154  0.061950      2.000000
  0.020795  0.047154  0.061950      4.000000
  0.041590  0.047154  0.061950      4.000000
  0.062385  0.047154  0.061950      2.000000
  0.000000  0.000000  0.082600      1.000000
  0.020795  0.000000  0.082600      2.000000
  0.041590  0.000000  0.082600      2.000000
  0.062385  0.000000  0.082600      1.000000
  0.000000  0.023577  0.082600      2.000000
  0.020795  0.023577  0.082600      4.000000
  0.041590  0.023577  0.082600      4.000000
  0.062385  0.023577  0.082600      2.000000
  0.000000  0.047154  0.082600      1.000000
  0.020795  0.047154  0.082600      2.000000
  0.041590  0.047154  0.082600      2.000000
  0.062385  0.047154  0.082600      1.000000
 


--------------------------------------------------------------------------------------------------------




 Dimension of arrays:
   k-points           NKPTS =     60   k-points in BZ     NKDIM =     60   number of bands    NBANDS=    116
   number of dos      NEDOS =    301   number of ions     NIONS =     28
   non local maximal  LDIM  =      5   non local SUM 2l+1 LMDIM =     13
   total plane-waves  NPLWV = 230400
   max r-space proj   IRMAX =   5777   max aug-charges    IRDMAX=   8127
   dimension x,y,z NGX =    60 NGY =   80 NGZ =   48
   dimension x,y,z NGXF=    90 NGYF=  120 NGZF=   64
   support grid    NGXF=    90 NGYF=  120 NGZF=   64
   ions per type =              16   8   4
 NGX,Y,Z   is equivalent  to a cutoff of  12.45, 12.54, 13.18 a.u.
 NGXF,Y,Z  is equivalent  to a cutoff of  18.67, 18.81, 17.58 a.u.


 I would recommend the setting:
   dimension x,y,z NGX =    58 NGY =   77 NGZ =   44
 SYSTEM =  unknown system                          
 POSCAR =  S Rb O                                  

 Startparameter for this run:
   NWRITE =      2    write-flag & timer
   PREC   = high      normal or accurate (medium, high low for compatibility)
   ISTART =      0    job   : 0-new  1-cont  2-samecut
   ICHARG =      1    charge: 1-file 2-atom 10-const
   ISPIN  =      1    spin polarized calculation?
   LNONCOLLINEAR =      F non collinear calculations
   LSORBIT =      F    spin-orbit coupling
   INIWAV =      1    electr: 0-lowe 1-rand  2-diag
   LASPH  =      F    aspherical Exc in radial PAW
   METAGGA=      F    non-selfconsistent MetaGGA calc.

 Electronic Relaxation 1
   ENCUT  =  500.0 eV  36.75 Ry    6.06 a.u.  14.61 19.33 11.04*2*pi/ulx,y,z
   ENINI  =  500.0     initial cutoff
   ENAUG  =  605.4 eV  augmentation charge cutoff
   NELM   =     60;   NELMIN=  2; NELMDL= -5     # of ELM steps 
   EDIFF  = 0.1E-03   stopping-criterion for ELM
   LREAL  =      T    real-space projection
   NLSPLINE    = F    spline interpolate recip. space projectors
   LCOMPAT=      F    compatible to vasp.4.4
   GGA_COMPAT  = T    GGA compatible to vasp.4.4-vasp.4.6
   LMAXPAW     = -100 max onsite density
   LMAXMIX     =    2 max onsite mixed and CHGCAR
   VOSKOWN=      0    Vosko Wilk Nusair interpolation
   ROPT   =   -0.00040  -0.00040  -0.00040
 Ionic relaxation
   EDIFFG = 0.1E-02   stopping-criterion for IOM
   NSW    =    100    number of steps for IOM
   NBLOCK =      1;   KBLOCK =    100    inner block; outer block 
   IBRION =      2    ionic relax: 0-MD 1-quasi-New 2-CG
   NFREE  =      1    steps in history (QN), initial steepest desc. (CG)
   ISIF   =      3    stress and relaxation
   IWAVPR =     11    prediction:  0-non 1-charg 2-wave 3-comb
   ISYM   =      1    0-nonsym 1-usesym 2-fastsym
   LCORR  =      T    Harris-Foulkes like correction to forces

   POTIM  = 0.5000    time-step for ionic-motion
   TEIN   =    0.0    initial temperature
   TEBEG  =    0.0;   TEEND  =   0.0 temperature during run
   SMASS  =  -3.00    Nose mass-parameter (am)
   estimated Nose-frequenzy (Omega)   =  0.10E-29 period in steps =****** mass=  -0.147E-26a.u.
   SCALEE = 1.0000    scale energy and forces
   NPACO  =    256;   APACO  = 16.0  distance and # of slots for P.C.
   PSTRESS=    0.0 pullay stress

  Mass of Ions in am
   POMASS =  16.00 85.47 32.07
  Ionic Valenz
   ZVAL   =   6.00  9.00  6.00
  Atomic Wigner-Seitz radii
   RWIGS  =  -1.00 -1.00 -1.00
  virtual crystal weights 
   VCA    =   1.00  1.00  1.00
   NELECT =     192.0000    total number of electrons
   NUPDOWN=      -1.0000    fix difference up-down

 DOS related values:
   EMIN   =  10.00;   EMAX   =-10.00  energy-range for DOS
   EFERMI =   0.00
   ISMEAR =     0;   SIGMA  =   0.20  broadening in eV -4-tet -1-fermi 0-gaus

 Electronic relaxation 2 (details)
   IALGO  =     68    algorithm
   LDIAG  =      T    sub-space diagonalisation (order eigenvalues)
   LSUBROT=      T    optimize rotation matrix (better conditioning)
   TURBO    =      0    0=normal 1=particle mesh
   IRESTART =      0    0=no restart 2=restart with 2 vectors
   NREBOOT  =      0    no. of reboots
   NMIN     =      0    reboot dimension
   EREF     =   0.00    reference energy to select bands
   IMIX   =      4    mixing-type and parameters
     AMIX     =   0.40;   BMIX     =  1.00
     AMIX_MAG =   1.60;   BMIX_MAG =  1.00
     AMIN     =   0.10
     WC   =   100.;   INIMIX=   1;  MIXPRE=   1;  MAXMIX= -45

 Intra band minimization:
   WEIMIN = 0.0010     energy-eigenvalue tresh-hold
   EBREAK =  0.22E-06  absolut break condition
   DEPER  =   0.30     relativ break condition  

   TIME   =   0.40     timestep for ELM

  volume/ion in A,a.u.               =      18.37       123.99
  Fermi-wavevector in a.u.,A,eV,Ry     =   1.178686  2.227394 18.902599  1.389302
  Thomas-Fermi vector in A             =   2.315011
 
 Write flags
   LWAVE  =      F    write WAVECAR
   LCHARG =      T    write CHGCAR
   LVTOT  =      F    write LOCPOT, total local potential
   LVHAR  =      T    write LOCPOT, Hartree potential only
   LELF   =      F    write electronic localiz. function (ELF)
   LORBIT =     11    0 simple, 1 ext, 2 COOP (PROOUT)


 Dipole corrections
   LMONO  =      F    monopole corrections only (constant potential shift)
   LDIPOL =      F    correct potential (dipole corrections)
   IDIPOL =      0    1-x, 2-y, 3-z, 4-all directions 
   EPSILON=  1.0000000 bulk dielectric constant

 Exchange correlation treatment:
   GGA     =    --    GGA type
   LEXCH   =     8    internal setting for exchange type
   VOSKOWN=      0    Vosko Wilk Nusair interpolation
   LHFCALC =     F    Hartree Fock is set to
   LHFONE  =     F    Hartree Fock one center treatment
   AEXX    =    0.0000 exact exchange contribution

 Linear response parameters
   LEPSILON=     F    determine dielectric tensor
   LRPA    =     F    only Hartree local field effects (RPA)
   LNABLA  =     F    use nabla operator in PAW spheres
   LVEL    =     F    velocity operator in full k-point grid
   LINTERFAST=   F  fast interpolation
   KINTER  =     0    interpolate to denser k-point grid
   CSHIFT  =0.1000    complex shift for real part using Kramers Kronig
   OMEGAMAX=  -1.0    maximum frequency
   DEG_THRESHOLD= 0.2000000E-02 threshold for treating states as degnerate
   RTIME   =    0.100 relaxation time in fs

 Orbital magnetization related:
   ORBITALMAG=     F  switch on orbital magnetization
   LCHIMAG   =     F  perturbation theory with respect to B field
   DQ        =  0.001000  dq finite difference perturbation B field



--------------------------------------------------------------------------------------------------------


 conjugate gradient relaxation of ions
 charge density and potential will be updated during run
 non-spin polarized calculation
 RMM-DIIS sequential band-by-band and
  variant of blocked Davidson during initial phase
 perform sub-space diagonalisation
    before iterative eigenvector-optimisation
 modified Broyden-mixing scheme, WC =      100.0
 initial mixing is a Kerker type mixing with AMIX =  0.4000 and BMIX =      1.0000
 Hartree-type preconditioning will be used
 using additional bands           20
 real space projection scheme for non local part
 use partial core corrections
 calculate Harris-corrections to forces 
   (improved forces if not selfconsistent)
 use gradient corrections 
 use of overlap-Matrix (Vanderbilt PP)
 Gauss-broadening in eV      SIGMA  =   0.20


--------------------------------------------------------------------------------------------------------


  energy-cutoff  :      500.00
  volume of cell :      514.44
      direct lattice vectors                 reciprocal lattice vectors
     8.014805000  0.000000000  0.000000000     0.124769099  0.000000000  0.000000000
     0.000000000 10.603521000  0.000000000     0.000000000  0.094308296  0.000000000
     0.000000000  0.000000000  6.053238000     0.000000000  0.000000000  0.165200840

  length of vectors
     8.014805000 10.603521000  6.053238000     0.124769099  0.094308296  0.165200840


 
 k-points in units of 2pi/SCALE and weight: KPOINTS                                 
   0.00000000  0.00000000  0.00000000       0.005
   0.02079485  0.00000000  0.00000000       0.010
   0.04158970  0.00000000  0.00000000       0.010
   0.06238455  0.00000000  0.00000000       0.005
   0.00000000  0.02357707  0.00000000       0.010
   0.02079485  0.02357707  0.00000000       0.021
   0.04158970  0.02357707  0.00000000       0.021
   0.06238455  0.02357707  0.00000000       0.010
   0.00000000  0.04715415  0.00000000       0.005
   0.02079485  0.04715415  0.00000000       0.010
   0.04158970  0.04715415  0.00000000       0.010
   0.06238455  0.04715415  0.00000000       0.005
   0.00000000  0.00000000  0.02065010       0.010
   0.02079485  0.00000000  0.02065010       0.021
   0.04158970  0.00000000  0.02065010       0.021
   0.06238455  0.00000000  0.02065010       0.010
   0.00000000  0.02357707  0.02065010       0.021
   0.02079485  0.02357707  0.02065010       0.042
   0.04158970  0.02357707  0.02065010       0.042
   0.06238455  0.02357707  0.02065010       0.021
   0.00000000  0.04715415  0.02065010       0.010
   0.02079485  0.04715415  0.02065010       0.021
   0.04158970  0.04715415  0.02065010       0.021
   0.06238455  0.04715415  0.02065010       0.010
   0.00000000  0.00000000  0.04130021       0.010
   0.02079485  0.00000000  0.04130021       0.021
   0.04158970  0.00000000  0.04130021       0.021
   0.06238455  0.00000000  0.04130021       0.010
   0.00000000  0.02357707  0.04130021       0.021
   0.02079485  0.02357707  0.04130021       0.042
   0.04158970  0.02357707  0.04130021       0.042
   0.06238455  0.02357707  0.04130021       0.021
   0.00000000  0.04715415  0.04130021       0.010
   0.02079485  0.04715415  0.04130021       0.021
   0.04158970  0.04715415  0.04130021       0.021
   0.06238455  0.04715415  0.04130021       0.010
   0.00000000  0.00000000  0.06195031       0.010
   0.02079485  0.00000000  0.06195031       0.021
   0.04158970  0.00000000  0.06195031       0.021
   0.06238455  0.00000000  0.06195031       0.010
   0.00000000  0.02357707  0.06195031       0.021
   0.02079485  0.02357707  0.06195031       0.042
   0.04158970  0.02357707  0.06195031       0.042
   0.06238455  0.02357707  0.06195031       0.021
   0.00000000  0.04715415  0.06195031       0.010
   0.02079485  0.04715415  0.06195031       0.021
   0.04158970  0.04715415  0.06195031       0.021
   0.06238455  0.04715415  0.06195031       0.010
   0.00000000  0.00000000  0.08260042       0.005
   0.02079485  0.00000000  0.08260042       0.010
   0.04158970  0.00000000  0.08260042       0.010
   0.06238455  0.00000000  0.08260042       0.005
   0.00000000  0.02357707  0.08260042       0.010
   0.02079485  0.02357707  0.08260042       0.021
   0.04158970  0.02357707  0.08260042       0.021
   0.06238455  0.02357707  0.08260042       0.010
   0.00000000  0.04715415  0.08260042       0.005
   0.02079485  0.04715415  0.08260042       0.010
   0.04158970  0.04715415  0.08260042       0.010
   0.06238455  0.04715415  0.08260042       0.005
 
 k-points in reciprocal lattice and weights: KPOINTS                                 
   0.00000000  0.00000000  0.00000000       0.005
   0.16666667  0.00000000  0.00000000       0.010
   0.33333333  0.00000000  0.00000000       0.010
   0.50000000  0.00000000  0.00000000       0.005
   0.00000000  0.25000000  0.00000000       0.010
   0.16666667  0.25000000  0.00000000       0.021
   0.33333333  0.25000000  0.00000000       0.021
   0.50000000  0.25000000  0.00000000       0.010
   0.00000000  0.50000000  0.00000000       0.005
   0.16666667  0.50000000  0.00000000       0.010
   0.33333333  0.50000000  0.00000000       0.010
   0.50000000  0.50000000  0.00000000       0.005
   0.00000000  0.00000000  0.12500000       0.010
   0.16666667  0.00000000  0.12500000       0.021
   0.33333333  0.00000000  0.12500000       0.021
   0.50000000  0.00000000  0.12500000       0.010
   0.00000000  0.25000000  0.12500000       0.021
   0.16666667  0.25000000  0.12500000       0.042
   0.33333333  0.25000000  0.12500000       0.042
   0.50000000  0.25000000  0.12500000       0.021
   0.00000000  0.50000000  0.12500000       0.010
   0.16666667  0.50000000  0.12500000       0.021
   0.33333333  0.50000000  0.12500000       0.021
   0.50000000  0.50000000  0.12500000       0.010
   0.00000000  0.00000000  0.25000000       0.010
   0.16666667  0.00000000  0.25000000       0.021
   0.33333333  0.00000000  0.25000000       0.021
   0.50000000  0.00000000  0.25000000       0.010
   0.00000000  0.25000000  0.25000000       0.021
   0.16666667  0.25000000  0.25000000       0.042
   0.33333333  0.25000000  0.25000000       0.042
   0.50000000  0.25000000  0.25000000       0.021
   0.00000000  0.50000000  0.25000000       0.010
   0.16666667  0.50000000  0.25000000       0.021
   0.33333333  0.50000000  0.25000000       0.021
   0.50000000  0.50000000  0.25000000       0.010
   0.00000000  0.00000000  0.37500000       0.010
   0.16666667  0.00000000  0.37500000       0.021
   0.33333333  0.00000000  0.37500000       0.021
   0.50000000  0.00000000  0.37500000       0.010
   0.00000000  0.25000000  0.37500000       0.021
   0.16666667  0.25000000  0.37500000       0.042
   0.33333333  0.25000000  0.37500000       0.042
   0.50000000  0.25000000  0.37500000       0.021
   0.00000000  0.50000000  0.37500000       0.010
   0.16666667  0.50000000  0.37500000       0.021
   0.33333333  0.50000000  0.37500000       0.021
   0.50000000  0.50000000  0.37500000       0.010
   0.00000000  0.00000000  0.50000000       0.005
   0.16666667  0.00000000  0.50000000       0.010
   0.33333333  0.00000000  0.50000000       0.010
   0.50000000  0.00000000  0.50000000       0.005
   0.00000000  0.25000000  0.50000000       0.010
   0.16666667  0.25000000  0.50000000       0.021
   0.33333333  0.25000000  0.50000000       0.021
   0.50000000  0.25000000  0.50000000       0.010
   0.00000000  0.50000000  0.50000000       0.005
   0.16666667  0.50000000  0.50000000       0.010
   0.33333333  0.50000000  0.50000000       0.010
   0.50000000  0.50000000  0.50000000       0.005
 
 position of ions in fractional coordinates (direct lattice) 
   0.19338461  0.85537814  0.95242911
   0.80661598  0.14462083  0.45242894
   0.69338428  0.64462173  0.54756975
   0.69338428  0.64462173  0.95242911
   0.80661598  0.14462083  0.04756958
   0.19338461  0.85537814  0.54756975
   0.30661755  0.35537724  0.45242894
   0.29492295  0.55422722  0.24999843
   0.20507672  0.05422727  0.75000026
   0.79492262  0.94577264  0.24999843
   0.70507764  0.44577268  0.75000026
   0.05344359  0.41150199  0.24999843
   0.44655483  0.91150195  0.75000026
   0.55344576  0.08849796  0.24999843
   0.94655575  0.58849886  0.75000026
   0.30661755  0.35537724  0.04756958
   0.98756360  0.69900178  0.24999843
   0.51243541  0.19900182  0.75000026
   0.48756393  0.80099903  0.24999843
   0.01243449  0.30099907  0.75000026
   0.67496711  0.40897924  0.24999843
   0.82503314  0.90897920  0.75000026
   0.17496620  0.09101977  0.24999843
   0.32503472  0.59102066  0.75000026
   0.73917703  0.08100611  0.24999843
   0.76082322  0.58100512  0.75000026
   0.23917736  0.41899479  0.24999843
   0.26082231  0.91899474  0.75000026
 
 position of ions in cartesian coordinates  (Angst):
   1.54993994  9.07002002  5.76528008
   6.46486977  1.53349000  2.73866004
   5.55733980  6.83526002  3.31457005
   5.55733980  6.83526002  5.76528008
   6.46486977  1.53349000  0.28795000
   1.54993994  9.07002002  3.31457005
   2.45747991  3.76825001  2.73866004
   2.36374992  5.87676001  1.51330002
   1.64364994  0.57500000  4.53993006
   6.37114977 10.02852003  1.51330002
   5.65105980  4.72676001  4.53993006
   0.42833998  4.36337001  1.51330002
   3.57904987  9.66513002  4.53993006
   4.43575984  0.93839000  1.51330002
   7.58645973  6.24016002  4.53993006
   2.45747991  3.76825001  0.28795000
   7.91512971  7.41188002  1.51330002
   4.10706985  2.11012000  4.53993006
   3.90772986  8.49341002  1.51330002
   0.09966000  3.19165001  4.53993006
   5.40972980  4.33662001  1.51330002
   6.61247976  9.63838002  4.53993006
   1.40231995  0.96513000  1.51330002
   2.60508991  6.26690002  4.53993006
   5.92435979  0.85895000  1.51330002
   6.09784978  6.16070002  4.53993006
   1.91695993  4.44282001  1.51330002
   2.09043992  9.74458002  4.53993006
 


--------------------------------------------------------------------------------------------------------


 k-point  1 :   0.0000 0.0000 0.0000  plane waves:   13089
 k-point  2 :   0.1667 0.0000 0.0000  plane waves:   13059
 k-point  3 :   0.3333 0.0000 0.0000  plane waves:   13025
 k-point  4 :   0.5000 0.0000 0.0000  plane waves:   13058
 k-point  5 :   0.0000 0.2500 0.0000  plane waves:   13053
 k-point  6 :   0.1667 0.2500 0.0000  plane waves:   13053
 k-point  7 :   0.3333 0.2500 0.0000  plane waves:   13015
 k-point  8 :   0.5000 0.2500 0.0000  plane waves:   12998
 k-point  9 :   0.0000 0.5000 0.0000  plane waves:   13078
 k-point 10 :   0.1667 0.5000 0.0000  plane waves:   13032
 k-point 11 :   0.3333 0.5000 0.0000  plane waves:   13032
 k-point 12 :   0.5000 0.5000 0.0000  plane waves:   13012
 k-point 13 :   0.0000 0.0000 0.1250  plane waves:   13070
 k-point 14 :   0.1667 0.0000 0.1250  plane waves:   13059
 k-point 15 :   0.3333 0.0000 0.1250  plane waves:   13056
 k-point 16 :   0.5000 0.0000 0.1250  plane waves:   13038
 k-point 17 :   0.0000 0.2500 0.1250  plane waves:   13059
 k-point 18 :   0.1667 0.2500 0.1250  plane waves:   13057
 k-point 19 :   0.3333 0.2500 0.1250  plane waves:   13053
 k-point 20 :   0.5000 0.2500 0.1250  plane waves:   13044
 k-point 21 :   0.0000 0.5000 0.1250  plane waves:   13040
 k-point 22 :   0.1667 0.5000 0.1250  plane waves:   13050
 k-point 23 :   0.3333 0.5000 0.1250  plane waves:   13036
 k-point 24 :   0.5000 0.5000 0.1250  plane waves:   13028
 k-point 25 :   0.0000 0.0000 0.2500  plane waves:   13056
 k-point 26 :   0.1667 0.0000 0.2500  plane waves:   13070
 k-point 27 :   0.3333 0.0000 0.2500  plane waves:   13059
 k-point 28 :   0.5000 0.0000 0.2500  plane waves:   13034
 k-point 29 :   0.0000 0.2500 0.2500  plane waves:   13056
 k-point 30 :   0.1667 0.2500 0.2500  plane waves:   13059
 k-point 31 :   0.3333 0.2500 0.2500  plane waves:   13072
 k-point 32 :   0.5000 0.2500 0.2500  plane waves:   13064
 k-point 33 :   0.0000 0.5000 0.2500  plane waves:   13078
 k-point 34 :   0.1667 0.5000 0.2500  plane waves:   13070
 k-point 35 :   0.3333 0.5000 0.2500  plane waves:   13060
 k-point 36 :   0.5000 0.5000 0.2500  plane waves:   13060
 k-point 37 :   0.0000 0.0000 0.3750  plane waves:   13066
 k-point 38 :   0.1667 0.0000 0.3750  plane waves:   13081
 k-point 39 :   0.3333 0.0000 0.3750  plane waves:   13076
 k-point 40 :   0.5000 0.0000 0.3750  plane waves:   13082
 k-point 41 :   0.0000 0.2500 0.3750  plane waves:   13078
 k-point 42 :   0.1667 0.2500 0.3750  plane waves:   13073
 k-point 43 :   0.3333 0.2500 0.3750  plane waves:   13074
 k-point 44 :   0.5000 0.2500 0.3750  plane waves:   13064
 k-point 45 :   0.0000 0.5000 0.3750  plane waves:   13082
 k-point 46 :   0.1667 0.5000 0.3750  plane waves:   13060
 k-point 47 :   0.3333 0.5000 0.3750  plane waves:   13052
 k-point 48 :   0.5000 0.5000 0.3750  plane waves:   13064
 k-point 49 :   0.0000 0.0000 0.5000  plane waves:   13082
 k-point 50 :   0.1667 0.0000 0.5000  plane waves:   13076
 k-point 51 :   0.3333 0.0000 0.5000  plane waves:   13054
 k-point 52 :   0.5000 0.0000 0.5000  plane waves:   13076
 k-point 53 :   0.0000 0.2500 0.5000  plane waves:   13090
 k-point 54 :   0.1667 0.2500 0.5000  plane waves:   13074
 k-point 55 :   0.3333 0.2500 0.5000  plane waves:   13068
 k-point 56 :   0.5000 0.2500 0.5000  plane waves:   13052
 k-point 57 :   0.0000 0.5000 0.5000  plane waves:   13064
 k-point 58 :   0.1667 0.5000 0.5000  plane waves:   13088
 k-point 59 :   0.3333 0.5000 0.5000  plane waves:   13084
 k-point 60 :   0.5000 0.5000 0.5000  plane waves:   13056

 maximum and minimum number of plane-waves per node :      3308     3236

 maximum number of plane-waves:     13090
 maximum index in each direction: 
   IXMAX=   14   IYMAX=   19   IZMAX=   11
   IXMIN=  -15   IYMIN=  -19   IZMIN=  -11

 NGX is ok and might be reduce to  60
 NGY is ok and might be reduce to  78
 NGZ is ok and might be reduce to  46

 real space projection operators:
  total allocation   :       6563.72 KBytes
  max/ min on nodes  :       1643.31       1638.55


 parallel 3D FFT for wavefunctions:
    minimum data exchange during FFTs selected (reduces bandwidth)
 parallel 3D FFT for charge:
    minimum data exchange during FFTs selected (reduces bandwidth)


 total amount of memory used by VASP on root node   236106. kBytes
========================================================================

   base      :      30000. kBytes
   nonlr-proj:       4755. kBytes
   fftplans  :       5072. kBytes
   grid      :       8359. kBytes
   one-center:         56. kBytes
   wavefun   :     187864. kBytes
 
 Broyden mixing: mesh for mixing (old mesh)
   NGX = 29   NGY = 39   NGZ = 23
  (NGX  = 90   NGY  =120   NGZ  = 64)
  gives a total of  26013 points

 initial charge density was supplied:
 charge density of overlapping atoms calculated
 number of electron     192.0000000 magnetization 
 keeping initial charge density in first step


--------------------------------------------------------------------------------------------------------


 Maximum index for non-local projection operator         1396
 Maximum index for augmentation-charges         1360 (set IRDMAX)


--------------------------------------------------------------------------------------------------------


 First call to EWALD:  gamma=   0.221
 Maximum number of real-space cells 3x 2x 3
 Maximum number of reciprocal cells 3x 3x 2

 FEWALD executed in parallel
    FEWALD:  cpu time    0.00: real time    0.00


----------------------------------------- Iteration    1(   1)  ---------------------------------------


    POTLOK:  cpu time    0.13: real time    0.14
    SETDIJ:  cpu time    0.01: real time    0.01
     EDDAV:  cpu time  108.32: real time  108.57
       DOS:  cpu time    0.03: real time    0.03
    --------------------------------------------
      LOOP:  cpu time  108.50: real time  108.75

 eigenvalue-minimisations  : 13920
 total energy-change (2. order) : 0.1438746E+04  (-0.9576896E+04)
 number of electron     192.0000000 magnetization 
 augmentation part      192.0000000 magnetization 

 Free energy of the ion-electron system (eV)
  ---------------------------------------------------
  alpha Z        PSCENC =       694.47477009
  Ewald energy   TEWEN  =     -9030.56879341
  -1/2 Hartree   DENC   =     -3904.22040511
  -exchange  EXHF       =         0.00000000
  -V(xc)+E(xc)   XCENC  =       733.80174386
  PAW double counting   =      7591.41689046    -7572.57129250
  entropy T*S    EENTRO =        -0.12528800
  eigenvalues    EBANDS =      -394.91832215
  atomic energy  EATOM  =     13321.45692193
  ---------------------------------------------------
  free energy    TOTEN  =      1438.74622517 eV

  energy without entropy =     1438.87151317  energy(sigma->0) =     1438.80886917


--------------------------------------------------------------------------------------------------------




----------------------------------------- Iteration    1(   2)  ---------------------------------------


     EDDAV:  cpu time  127.45: real time  127.71
       DOS:  cpu time    0.02: real time    0.02
    --------------------------------------------
      LOOP:  cpu time  127.47: real time  127.75

 eigenvalue-minimisations  : 17124
 total energy-change (2. order) :-0.1494654E+04  (-0.1458327E+04)
 number of electron     192.0000000 magnetization 
 augmentation part      192.0000000 magnetization 

 Free energy of the ion-electron system (eV)
  ---------------------------------------------------
  alpha Z        PSCENC =       694.47477009
  Ewald energy   TEWEN  =     -9030.56879341
  -1/2 Hartree   DENC   =     -3904.22040511
  -exchange  EXHF       =         0.00000000
  -V(xc)+E(xc)   XCENC  =       733.80174386
  PAW double counting   =      7591.41689046    -7572.57129250
  entropy T*S    EENTRO =         0.00000000
  eigenvalues    EBANDS =     -1889.69720117
  atomic energy  EATOM  =     13321.45692193
  ---------------------------------------------------
  free energy    TOTEN  =       -55.90736585 eV

  energy without entropy =      -55.90736585  energy(sigma->0) =      -55.90736585


--------------------------------------------------------------------------------------------------------




----------------------------------------- Iteration    1(   3)  ---------------------------------------


     EDDAV:  cpu time  132.89: real time  133.15
       DOS:  cpu time    0.02: real time    0.02
    --------------------------------------------
      LOOP:  cpu time  132.91: real time  133.17

 eigenvalue-minimisations  : 18072
 total energy-change (2. order) :-0.1204801E+03  (-0.1200223E+03)
 number of electron     192.0000000 magnetization 
 augmentation part      192.0000000 magnetization 

 Free energy of the ion-electron system (eV)
  ---------------------------------------------------
  alpha Z        PSCENC =       694.47477009
  Ewald energy   TEWEN  =     -9030.56879341
  -1/2 Hartree   DENC   =     -3904.22040511
  -exchange  EXHF       =         0.00000000
  -V(xc)+E(xc)   XCENC  =       733.80174386
  PAW double counting   =      7591.41689046    -7572.57129250
  entropy T*S    EENTRO =         0.00000000
  eigenvalues    EBANDS =     -2010.17734378
  atomic energy  EATOM  =     13321.45692193
  ---------------------------------------------------
  free energy    TOTEN  =      -176.38750846 eV

  energy without entropy =     -176.38750846  energy(sigma->0) =     -176.38750846


--------------------------------------------------------------------------------------------------------




----------------------------------------- Iteration    1(   4)  ---------------------------------------


     EDDAV:  cpu time  144.43: real time  144.72
       DOS:  cpu time    0.02: real time    0.02
    --------------------------------------------
      LOOP:  cpu time  144.45: real time  144.74

 eigenvalue-minimisations  : 20056
 total energy-change (2. order) :-0.3477456E+01  (-0.3471843E+01)
 number of electron     192.0000000 magnetization 
 augmentation part      192.0000000 magnetization 

 Free energy of the ion-electron system (eV)
  ---------------------------------------------------
  alpha Z        PSCENC =       694.47477009
  Ewald energy   TEWEN  =     -9030.56879341
  -1/2 Hartree   DENC   =     -3904.22040511
  -exchange  EXHF       =         0.00000000
  -V(xc)+E(xc)   XCENC  =       733.80174386
  PAW double counting   =      7591.41689046    -7572.57129250
  entropy T*S    EENTRO =         0.00000000
  eigenvalues    EBANDS =     -2013.65480019
  atomic energy  EATOM  =     13321.45692193
  ---------------------------------------------------
  free energy    TOTEN  =      -179.86496487 eV

  energy without entropy =     -179.86496487  energy(sigma->0) =     -179.86496487


--------------------------------------------------------------------------------------------------------




----------------------------------------- Iteration    1(   5)  ---------------------------------------


     EDDAV:  cpu time  151.19: real time  151.49
       DOS:  cpu time    0.02: real time    0.02
    CHARGE:  cpu time    7.49: real time    7.51
    MIXING:  cpu time    0.00: real time    0.00
    --------------------------------------------
      LOOP:  cpu time  158.71: real time  159.02

 eigenvalue-minimisations  : 21232
 total energy-change (2. order) :-0.1503680E+00  (-0.1503401E+00)
 number of electron     191.9999276 magnetization 
 augmentation part        9.0089188 magnetization 

 Broyden mixing:
  rms(total) = 0.29341E+01    rms(broyden)= 0.29323E+01
  rms(prec ) = 0.38020E+01
  weight for this iteration     100.00

 Free energy of the ion-electron system (eV)
  ---------------------------------------------------
  alpha Z        PSCENC =       694.47477009
  Ewald energy   TEWEN  =     -9030.56879341
  -1/2 Hartree   DENC   =     -3904.22040511
  -exchange  EXHF       =         0.00000000
  -V(xc)+E(xc)   XCENC  =       733.80174386
  PAW double counting   =      7591.41689046    -7572.57129250
  entropy T*S    EENTRO =         0.00000000
  eigenvalues    EBANDS =     -2013.80516817
  atomic energy  EATOM  =     13321.45692193
  ---------------------------------------------------
  free energy    TOTEN  =      -180.01533285 eV

  energy without entropy =     -180.01533285  energy(sigma->0) =     -180.01533285


--------------------------------------------------------------------------------------------------------




----------------------------------------- Iteration    1(   6)  ---------------------------------------


    POTLOK:  cpu time    0.13: real time    0.13
    SETDIJ:  cpu time    0.01: real time    0.01
    EDDIAG:  cpu time   21.74: real time   21.78
  RMM-DIIS:  cpu time   70.36: real time   70.61
    ORTHCH:  cpu time    2.19: real time    2.19
       DOS:  cpu time    0.02: real time    0.02
    CHARGE:  cpu time    7.45: real time    7.47
    MIXING:  cpu time    0.00: real time    0.00
    --------------------------------------------
      LOOP:  cpu time  101.90: real time  102.21

 eigenvalue-minimisations  : 13920
 total energy-change (2. order) : 0.2393380E+02  (-0.1192864E+02)
 number of electron     191.9999381 magnetization 
 augmentation part        6.5876010 magnetization 

 Broyden mixing:
  rms(total) = 0.84033E+00    rms(broyden)= 0.83932E+00
  rms(prec ) = 0.97532E+00
  weight for this iteration     100.00

 eigenvalues of (default mixing * dielectric matrix)
  average eigenvalue GAMMA=   0.9728
  0.9728

 Free energy of the ion-electron system (eV)
  ---------------------------------------------------
  alpha Z        PSCENC =       694.47477009
  Ewald energy   TEWEN  =     -9030.56879341
  -1/2 Hartree   DENC   =     -4119.26124983
  -exchange  EXHF       =         0.00000000
  -V(xc)+E(xc)   XCENC  =       749.63889056
  PAW double counting   =      8257.24448180    -8245.46803335
  entropy T*S    EENTRO =         0.00000000
  eigenvalues    EBANDS =     -1783.59852251
  atomic energy  EATOM  =     13321.45692193
  ---------------------------------------------------
  free energy    TOTEN  =      -156.08153472 eV

  energy without entropy =     -156.08153472  energy(sigma->0) =     -156.08153472


--------------------------------------------------------------------------------------------------------




----------------------------------------- Iteration    1(   7)  ---------------------------------------


    POTLOK:  cpu time    0.20: real time    0.20
    SETDIJ:  cpu time    0.01: real time    0.01
    EDDIAG:  cpu time   21.67: real time   21.71
  RMM-DIIS:  cpu time   77.49: real time   77.65
    ORTHCH:  cpu time    2.16: real time    2.16
       DOS:  cpu time    0.02: real time    0.02
    CHARGE:  cpu time    7.13: real time    7.15
    MIXING:  cpu time    0.00: real time    0.00
    --------------------------------------------
      LOOP:  cpu time  108.68: real time  108.91

 eigenvalue-minimisations  : 14898
 total energy-change (2. order) :-0.2429818E-01  (-0.5837701E+00)
 number of electron     191.9999397 magnetization 
 augmentation part        6.1928771 magnetization 

 Broyden mixing:
  rms(total) = 0.58177E+00    rms(broyden)= 0.58163E+00
  rms(prec ) = 0.66115E+00
  weight for this iteration     100.00

 eigenvalues of (default mixing * dielectric matrix)
  average eigenvalue GAMMA=   1.6648
  1.1824  2.1473

 Free energy of the ion-electron system (eV)
  ---------------------------------------------------
  alpha Z        PSCENC =       694.47477009
  Ewald energy   TEWEN  =     -9030.56879341
  -1/2 Hartree   DENC   =     -4143.11786668
  -exchange  EXHF       =         0.00000000
  -V(xc)+E(xc)   XCENC  =       751.08111216
  PAW double counting   =      8429.89357627    -8418.91088766
  entropy T*S    EENTRO =         0.00000000
  eigenvalues    EBANDS =     -1760.41466560
  atomic energy  EATOM  =     13321.45692193
  ---------------------------------------------------
  free energy    TOTEN  =      -156.10583290 eV

  energy without entropy =     -156.10583290  energy(sigma->0) =     -156.10583290


--------------------------------------------------------------------------------------------------------




----------------------------------------- Iteration    1(   8)  ---------------------------------------


    POTLOK:  cpu time    0.13: real time    0.13
    SETDIJ:  cpu time    0.01: real time    0.01
    EDDIAG:  cpu time   21.72: real time   21.76
  RMM-DIIS:  cpu time   73.89: real time   74.04
    ORTHCH:  cpu time    2.16: real time    2.16
       DOS:  cpu time    0.02: real time    0.02
    CHARGE:  cpu time    7.29: real time    7.31
    MIXING:  cpu time    0.00: real time    0.00
    --------------------------------------------
      LOOP:  cpu time  105.21: real time  105.43

 eigenvalue-minimisations  : 13920
 total energy-change (2. order) : 0.6318108E-01  (-0.2737532E+00)
 number of electron     191.9999384 magnetization 
 augmentation part        6.4743662 magnetization 

 Broyden mixing:
  rms(total) = 0.22062E+00    rms(broyden)= 0.22057E+00
  rms(prec ) = 0.28790E+00
  weight for this iteration     100.00

 eigenvalues of (default mixing * dielectric matrix)
  average eigenvalue GAMMA=   1.4933
  2.4631  1.0084  1.0084

 Free energy of the ion-electron system (eV)
  ---------------------------------------------------
  alpha Z        PSCENC =       694.47477009
  Ewald energy   TEWEN  =     -9030.56879341
  -1/2 Hartree   DENC   =     -4139.85884237
  -exchange  EXHF       =         0.00000000
  -V(xc)+E(xc)   XCENC  =       750.31616584
  PAW double counting   =      8559.21661642    -8547.93627263
  entropy T*S    EENTRO =         0.00000000
  eigenvalues    EBANDS =     -1763.14321769
  atomic energy  EATOM  =     13321.45692193
  ---------------------------------------------------
  free energy    TOTEN  =      -156.04265182 eV

  energy without entropy =     -156.04265182  energy(sigma->0) =     -156.04265182


--------------------------------------------------------------------------------------------------------




----------------------------------------- Iteration    1(   9)  ---------------------------------------


    POTLOK:  cpu time    0.13: real time    0.13
    SETDIJ:  cpu time    0.01: real time    0.01
    EDDIAG:  cpu time   21.72: real time   21.76
  RMM-DIIS:  cpu time   74.31: real time   74.46
    ORTHCH:  cpu time    2.15: real time    2.16
       DOS:  cpu time    0.02: real time    0.02
    CHARGE:  cpu time    7.18: real time    7.20
    MIXING:  cpu time    0.00: real time    0.00
    --------------------------------------------
      LOOP:  cpu time  105.53: real time  105.74

 eigenvalue-minimisations  : 14285
 total energy-change (2. order) : 0.1513275E+00  (-0.4906752E-01)
 number of electron     191.9999390 magnetization 
 augmentation part        6.3275953 magnetization 

 Broyden mixing:
  rms(total) = 0.54500E-01    rms(broyden)= 0.54468E-01
  rms(prec ) = 0.72041E-01
  weight for this iteration     100.00

 eigenvalues of (default mixing * dielectric matrix)
  average eigenvalue GAMMA=   1.7100
  2.3720  2.3720  1.0479  1.0479

 Free energy of the ion-electron system (eV)
  ---------------------------------------------------
  alpha Z        PSCENC =       694.47477009
  Ewald energy   TEWEN  =     -9030.56879341
  -1/2 Hartree   DENC   =     -4157.90066643
  -exchange  EXHF       =         0.00000000
  -V(xc)+E(xc)   XCENC  =       751.65994076
  PAW double counting   =      8616.32585015    -8605.43475400
  entropy T*S    EENTRO =         0.00000000
  eigenvalues    EBANDS =     -1745.90459341
  atomic energy  EATOM  =     13321.45692193
  ---------------------------------------------------
  free energy    TOTEN  =      -155.89132432 eV

  energy without entropy =     -155.89132432  energy(sigma->0) =     -155.89132432


--------------------------------------------------------------------------------------------------------




----------------------------------------- Iteration    1(  10)  ---------------------------------------


    POTLOK:  cpu time    0.13: real time    0.13
    SETDIJ:  cpu time    0.01: real time    0.01
    EDDIAG:  cpu time   21.76: real time   21.81
  RMM-DIIS:  cpu time   72.45: real time   72.60
    ORTHCH:  cpu time    2.16: real time    2.16
       DOS:  cpu time    0.02: real time    0.02
    CHARGE:  cpu time    7.34: real time    7.35
    MIXING:  cpu time    0.00: real time    0.00
    --------------------------------------------
      LOOP:  cpu time  103.87: real time  104.08

 eigenvalue-minimisations  : 13937
 total energy-change (2. order) :-0.1259820E-01  (-0.2223210E-01)
 number of electron     191.9999393 magnetization 
 augmentation part        6.2412168 magnetization 

 Broyden mixing:
  rms(total) = 0.43642E-01    rms(broyden)= 0.43609E-01
  rms(prec ) = 0.55132E-01
  weight for this iteration     100.00

 eigenvalues of (default mixing * dielectric matrix)
  average eigenvalue GAMMA=   1.5776
  2.6271  2.3164  0.9756  0.9756  0.9934

 Free energy of the ion-electron system (eV)
  ---------------------------------------------------
  alpha Z        PSCENC =       694.47477009
  Ewald energy   TEWEN  =     -9030.56879341
  -1/2 Hartree   DENC   =     -4161.10250434
  -exchange  EXHF       =         0.00000000
  -V(xc)+E(xc)   XCENC  =       751.98781201
  PAW double counting   =      8614.70230670    -8603.71449718
  entropy T*S    EENTRO =         0.00000000
  eigenvalues    EBANDS =     -1743.13993832
  atomic energy  EATOM  =     13321.45692193
  ---------------------------------------------------
  free energy    TOTEN  =      -155.90392252 eV

  energy without entropy =     -155.90392252  energy(sigma->0) =     -155.90392252


--------------------------------------------------------------------------------------------------------




----------------------------------------- Iteration    1(  11)  ---------------------------------------


    POTLOK:  cpu time    0.23: real time    0.23
    SETDIJ:  cpu time    0.01: real time    0.01
    EDDIAG:  cpu time   21.84: real time   21.89
  RMM-DIIS:  cpu time   73.34: real time   73.49
    ORTHCH:  cpu time    2.20: real time    2.21
       DOS:  cpu time    0.02: real time    0.02
    CHARGE:  cpu time    7.43: real time    7.44
    MIXING:  cpu time    0.00: real time    0.00
    --------------------------------------------
      LOOP:  cpu time  105.08: real time  105.29

 eigenvalue-minimisations  : 14451
 total energy-change (2. order) : 0.2104156E-02  (-0.1070201E-02)
 number of electron     191.9999393 magnetization 
 augmentation part        6.2410350 magnetization 

 Broyden mixing:
  rms(total) = 0.32726E-01    rms(broyden)= 0.32725E-01
  rms(prec ) = 0.42785E-01
  weight for this iteration     100.00

 eigenvalues of (default mixing * dielectric matrix)
  average eigenvalue GAMMA=   1.6366
  2.6669  2.4894  1.1577  1.1577  1.3749  0.9731

 Free energy of the ion-electron system (eV)
  ---------------------------------------------------
  alpha Z        PSCENC =       694.47477009
  Ewald energy   TEWEN  =     -9030.56879341
  -1/2 Hartree   DENC   =     -4161.18526509
  -exchange  EXHF       =         0.00000000
  -V(xc)+E(xc)   XCENC  =       751.97013271
  PAW double counting   =      8614.46148555    -8603.42098305
  entropy T*S    EENTRO =         0.00000000
  eigenvalues    EBANDS =     -1743.09008711
  atomic energy  EATOM  =     13321.45692193
  ---------------------------------------------------
  free energy    TOTEN  =      -155.90181836 eV

  energy without entropy =     -155.90181836  energy(sigma->0) =     -155.90181836


--------------------------------------------------------------------------------------------------------




----------------------------------------- Iteration    1(  12)  ---------------------------------------


    POTLOK:  cpu time    0.22: real time    0.22
    SETDIJ:  cpu time    0.01: real time    0.01
    EDDIAG:  cpu time   21.82: real time   21.86
  RMM-DIIS:  cpu time   67.78: real time   67.90
    ORTHCH:  cpu time    2.27: real time    2.28
       DOS:  cpu time    0.02: real time    0.02
    CHARGE:  cpu time    7.26: real time    7.27
    MIXING:  cpu time    0.00: real time    0.00
    --------------------------------------------
      LOOP:  cpu time   99.38: real time   99.57

 eigenvalue-minimisations  : 13440
 total energy-change (2. order) : 0.2929538E-02  (-0.2432372E-02)
 number of electron     191.9999392 magnetization 
 augmentation part        6.2712654 magnetization 

 Broyden mixing:
  rms(total) = 0.39976E-02    rms(broyden)= 0.39665E-02
  rms(prec ) = 0.52366E-02
  weight for this iteration     100.00

 eigenvalues of (default mixing * dielectric matrix)
  average eigenvalue GAMMA=   1.6033
  2.6400  2.6400  1.0224  1.1475  1.1475  1.3129  1.3129

 Free energy of the ion-electron system (eV)
  ---------------------------------------------------
  alpha Z        PSCENC =       694.47477009
  Ewald energy   TEWEN  =     -9030.56879341
  -1/2 Hartree   DENC   =     -4159.65982452
  -exchange  EXHF       =         0.00000000
  -V(xc)+E(xc)   XCENC  =       751.81250255
  PAW double counting   =      8607.98289143    -8596.89015218
  entropy T*S    EENTRO =         0.00000000
  eigenvalues    EBANDS =     -1744.50720471
  atomic energy  EATOM  =     13321.45692193
  ---------------------------------------------------
  free energy    TOTEN  =      -155.89888883 eV

  energy without entropy =     -155.89888883  energy(sigma->0) =     -155.89888883


--------------------------------------------------------------------------------------------------------




----------------------------------------- Iteration    1(  13)  ---------------------------------------


    POTLOK:  cpu time    0.13: real time    0.13
    SETDIJ:  cpu time    0.01: real time    0.01
    EDDIAG:  cpu time   21.18: real time   21.22
  RMM-DIIS:  cpu time   54.78: real time   54.89
    ORTHCH:  cpu time    2.27: real time    2.28
       DOS:  cpu time    0.02: real time    0.02
    CHARGE:  cpu time    7.45: real time    7.47
    MIXING:  cpu time    0.00: real time    0.00
    --------------------------------------------
      LOOP:  cpu time   85.85: real time   86.02

 eigenvalue-minimisations  : 10393
 total energy-change (2. order) : 0.1233544E-03  (-0.3691353E-04)
 number of electron     191.9999392 magnetization 
 augmentation part        6.2702974 magnetization 

 Broyden mixing:
  rms(total) = 0.89632E-03    rms(broyden)= 0.89332E-03
  rms(prec ) = 0.11375E-02
  weight for this iteration     100.00

 eigenvalues of (default mixing * dielectric matrix)
  average eigenvalue GAMMA=   1.6735
  2.8572  2.7417  2.2833  1.2185  1.2185  0.9413  1.0637  1.0637

 Free energy of the ion-electron system (eV)
  ---------------------------------------------------
  alpha Z        PSCENC =       694.47477009
  Ewald energy   TEWEN  =     -9030.56879341
  -1/2 Hartree   DENC   =     -4159.68131993
  -exchange  EXHF       =         0.00000000
  -V(xc)+E(xc)   XCENC  =       751.82601526
  PAW double counting   =      8608.07217545    -8596.97664930
  entropy T*S    EENTRO =         0.00000000
  eigenvalues    EBANDS =     -1744.50188556
  atomic energy  EATOM  =     13321.45692193
  ---------------------------------------------------
  free energy    TOTEN  =      -155.89876547 eV

  energy without entropy =     -155.89876547  energy(sigma->0) =     -155.89876547


--------------------------------------------------------------------------------------------------------




----------------------------------------- Iteration    1(  14)  ---------------------------------------


    POTLOK:  cpu time    0.13: real time    0.13
    SETDIJ:  cpu time    0.01: real time    0.01
    EDDIAG:  cpu time   21.09: real time   21.13
  RMM-DIIS:  cpu time   44.40: real time   44.48
    ORTHCH:  cpu time    2.29: real time    2.30
       DOS:  cpu time    0.02: real time    0.02
    --------------------------------------------
      LOOP:  cpu time   67.94: real time   68.07

 eigenvalue-minimisations  :  8162
 total energy-change (2. order) :-0.1204216E-04  (-0.6732668E-05)
 number of electron     191.9999392 magnetization 
 augmentation part        6.2702974 magnetization 

 Free energy of the ion-electron system (eV)
  ---------------------------------------------------
  alpha Z        PSCENC =       694.47477009
  Ewald energy   TEWEN  =     -9030.56879341
  -1/2 Hartree   DENC   =     -4159.60399002
  -exchange  EXHF       =         0.00000000
  -V(xc)+E(xc)   XCENC  =       751.82335372
  PAW double counting   =      8607.98543170    -8596.88637114
  entropy T*S    EENTRO =         0.00000000
  eigenvalues    EBANDS =     -1744.58010039
  atomic energy  EATOM  =     13321.45692193
  ---------------------------------------------------
  free energy    TOTEN  =      -155.89877751 eV

  energy without entropy =     -155.89877751  energy(sigma->0) =     -155.89877751


--------------------------------------------------------------------------------------------------------




 average (electrostatic) potential at core
  the test charge radii are     0.7215  1.1097  0.9698
  (the norm of the test charge is              1.0000)
       1 -73.9452       2 -73.9446       3 -73.9443       4 -73.9449       5 -73.9452
       6 -73.9444       7 -73.9437       8 -73.9562       9 -73.9565      10 -73.9566
      11 -73.9564      12 -73.8761      13 -73.8770      14 -73.8771      15 -73.8771
      16 -73.9446      17 -36.8182      18 -36.8185      19 -36.8184      20 -36.8182
      21 -37.0741      22 -37.0741      23 -37.0739      24 -37.0736      25 -94.3284
      26 -94.3274      27 -94.3263      28 -94.3275
 
 
 
 E-fermi :   0.7360     XC(G=0):  -8.5922     alpha+bet : -8.5582


 k-point   1 :       0.0000    0.0000    0.0000
  band No.  band energies     occupation 
      1     -24.6950      2.00000
      2     -24.6785      2.00000
      3     -24.6708      2.00000
      4     -24.6706      2.00000
      5     -24.4424      2.00000
      6     -24.4408      2.00000
      7     -24.4229      2.00000
      8     -24.4181      2.00000
      9     -22.6512      2.00000
     10     -22.6484      2.00000
     11     -22.6463      2.00000
     12     -22.6286      2.00000
     13     -18.4578      2.00000
     14     -18.4569      2.00000
     15     -18.4541      2.00000
     16     -18.4475      2.00000
     17     -18.4467      2.00000
     18     -18.4455      2.00000
     19     -18.4453      2.00000
     20     -18.4425      2.00000
     21     -18.4321      2.00000
     22     -18.4200      2.00000
     23     -18.4096      2.00000
     24     -18.4033      2.00000
     25      -9.2410      2.00000
     26      -9.2280      2.00000
     27      -9.0274      2.00000
     28      -9.0198      2.00000
     29      -9.0058      2.00000
     30      -8.9947      2.00000
     31      -8.9525      2.00000
     32      -8.9501      2.00000
     33      -8.9396      2.00000
     34      -8.9095      2.00000
     35      -8.8886      2.00000
     36      -8.8843      2.00000
     37      -8.8544      2.00000
     38      -8.8453      2.00000
     39      -8.7158      2.00000
     40      -8.6969      2.00000
     41      -8.6894      2.00000
     42      -8.6864      2.00000
     43      -8.6380      2.00000
     44      -8.5866      2.00000
     45      -8.5649      2.00000
     46      -8.5597      2.00000
     47      -8.5190      2.00000
     48      -8.4965      2.00000
     49      -8.1497      2.00000
     50      -8.0595      2.00000
     51      -7.7153      2.00000
     52      -7.6868      2.00000
     53      -5.7597      2.00000
     54      -5.6972      2.00000
     55      -5.6845      2.00000
     56      -5.6429      2.00000
     57      -5.6380      2.00000
     58      -5.6341      2.00000
     59      -5.6234      2.00000
     60      -5.6016      2.00000
     61      -5.5860      2.00000
     62      -5.5848      2.00000
     63      -5.5679      2.00000
     64      -5.5537      2.00000
     65      -2.7882      2.00000
     66      -2.7648      2.00000
     67      -2.6853      2.00000
     68      -2.6435      2.00000
     69      -2.5648      2.00000
     70      -2.5603      2.00000
     71      -2.5391      2.00000
     72      -2.5390      2.00000
     73      -2.5306      2.00000
     74      -2.4407      2.00000
     75      -2.3069      2.00000
     76      -2.2773      2.00000
     77      -2.2574      2.00000
     78      -2.1941      2.00000
     79      -2.1892      2.00000
     80      -2.1882      2.00000
     81      -2.1437      2.00000
     82      -2.0665      2.00000
     83      -2.0573      2.00000
     84      -2.0442      2.00000
     85      -0.5220      2.00000
     86      -0.4898      2.00000
     87      -0.4515      2.00000
     88      -0.4082      2.00000
     89      -0.3730      2.00000
     90      -0.3649      2.00000
     91      -0.3557      2.00000
     92      -0.3556      2.00000
     93      -0.3120      2.00000
     94      -0.3094      2.00000
     95      -0.3089      2.00000
     96      -0.2277      2.00000
     97       4.8019      0.00000
     98       6.5927      0.00000
     99       6.9058      0.00000
    100       7.0502      0.00000
    101       7.0601      0.00000
    102       7.0876      0.00000
    103       7.1972      0.00000
    104       7.3028      0.00000
    105       7.3182      0.00000
    106       7.4692      0.00000
    107       7.5722      0.00000
    108       7.5815      0.00000
    109       7.5988      0.00000
    110       7.6139      0.00000
    111       7.7127      0.00000
    112       7.9566      0.00000
    113       8.3015      0.00000
    114       8.3365      0.00000
    115       8.4045      0.00000
    116       8.4537      0.00000

 k-point   2 :       0.1667    0.0000    0.0000
  band No.  band energies     occupation 
      1     -24.6935      2.00000
      2     -24.6789      2.00000
      3     -24.6712      2.00000
      4     -24.6707      2.00000
      5     -24.4416      2.00000
      6     -24.4391      2.00000
      7     -24.4245      2.00000
      8     -24.4196      2.00000
      9     -22.6513      2.00000
     10     -22.6489      2.00000
     11     -22.6454      2.00000
     12     -22.6300      2.00000
     13     -18.4569      2.00000
     14     -18.4560      2.00000
     15     -18.4534      2.00000
     16     -18.4470      2.00000
     17     -18.4465      2.00000
     18     -18.4457      2.00000
     19     -18.4454      2.00000
     20     -18.4430      2.00000
     21     -18.4319      2.00000
     22     -18.4171      2.00000
     23     -18.4121      2.00000
     24     -18.4024      2.00000
     25      -9.2367      2.00000
     26      -9.2059      2.00000
     27      -9.0739      2.00000
     28      -9.0165      2.00000
     29      -9.0049      2.00000
     30      -8.9902      2.00000
     31      -8.9656      2.00000
     32      -8.9592      2.00000
     33      -8.9425      2.00000
     34      -8.9404      2.00000
     35      -8.9012      2.00000
     36      -8.8941      2.00000
     37      -8.8921      2.00000
     38      -8.7891      2.00000
     39      -8.7598      2.00000
     40      -8.6934      2.00000
     41      -8.6771      2.00000
     42      -8.6753      2.00000
     43      -8.6293      2.00000
     44      -8.5907      2.00000
     45      -8.5671      2.00000
     46      -8.5624      2.00000
     47      -8.5322      2.00000
     48      -8.5044      2.00000
     49      -8.1119      2.00000
     50      -8.0047      2.00000
     51      -7.7280      2.00000
     52      -7.6881      2.00000
     53      -5.7481      2.00000
     54      -5.6764      2.00000
     55      -5.6691      2.00000
     56      -5.6386      2.00000
     57      -5.6311      2.00000
     58      -5.6227      2.00000
     59      -5.6016      2.00000
     60      -5.5990      2.00000
     61      -5.5857      2.00000
     62      -5.5792      2.00000
     63      -5.5696      2.00000
     64      -5.5314      2.00000
     65      -2.7883      2.00000
     66      -2.7477      2.00000
     67      -2.6786      2.00000
     68      -2.6359      2.00000
     69      -2.5914      2.00000
     70      -2.5744      2.00000
     71      -2.5630      2.00000
     72      -2.5619      2.00000
     73      -2.4938      2.00000
     74      -2.4507      2.00000
     75      -2.2924      2.00000
     76      -2.2798      2.00000
     77      -2.2644      2.00000
     78      -2.2043      2.00000
     79      -2.1960      2.00000
     80      -2.1912      2.00000
     81      -2.1427      2.00000
     82      -2.1284      2.00000
     83      -2.0694      2.00000
     84      -2.0545      2.00000
     85      -0.5175      2.00000
     86      -0.4855      2.00000
     87      -0.4497      2.00000
     88      -0.4159      2.00000
     89      -0.3961      2.00000
     90      -0.3696      2.00000
     91      -0.3501      2.00000
     92      -0.3426      2.00000
     93      -0.3163      2.00000
     94      -0.3131      2.00000
     95      -0.3115      2.00000
     96      -0.2395      2.00000
     97       4.9372      0.00000
     98       6.6663      0.00000
     99       6.8947      0.00000
    100       6.9462      0.00000
    101       7.0189      0.00000
    102       7.0378      0.00000
    103       7.2015      0.00000
    104       7.3487      0.00000
    105       7.3799      0.00000
    106       7.5475      0.00000
    107       7.5616      0.00000
    108       7.6224      0.00000
    109       7.6587      0.00000
    110       7.6738      0.00000
    111       7.7629      0.00000
    112       7.9044      0.00000
    113       8.2063      0.00000
    114       8.2251      0.00000
    115       8.3946      0.00000
    116       8.7110      0.00000

 k-point   3 :       0.3333    0.0000    0.0000
  band No.  band energies     occupation 
      1     -24.6895      2.00000
      2     -24.6807      2.00000
      3     -24.6716      2.00000
      4     -24.6710      2.00000
      5     -24.4386      2.00000
      6     -24.4347      2.00000
      7     -24.4287      2.00000
      8     -24.4235      2.00000
      9     -22.6516      2.00000
     10     -22.6501      2.00000
     11     -22.6427      2.00000
     12     -22.6339      2.00000
     13     -18.4554      2.00000
     14     -18.4545      2.00000
     15     -18.4517      2.00000
     16     -18.4472      2.00000
     17     -18.4463      2.00000
     18     -18.4458      2.00000
     19     -18.4455      2.00000
     20     -18.4438      2.00000
     21     -18.4291      2.00000
     22     -18.4173      2.00000
     23     -18.4110      2.00000
     24     -18.4026      2.00000
     25      -9.2236      2.00000
     26      -9.1541      2.00000
     27      -9.1511      2.00000
     28      -9.0037      2.00000
     29      -9.0008      2.00000
     30      -9.0003      2.00000
     31      -8.9831      2.00000
     32      -8.9807      2.00000
     33      -8.9773      2.00000
     34      -8.9745      2.00000
     35      -8.9315      2.00000
     36      -8.9285      2.00000
     37      -8.8936      2.00000
[...]
    100       7.0528      0.00000
    101       7.1704      0.00000
    102       7.1704      0.00000
    103       7.3515      0.00000
    104       7.3515      0.00000
    105       7.6007      0.00000
    106       7.6008      0.00000
    107       7.6227      0.00000
    108       7.6228      0.00000
    109       7.8624      0.00000
    110       7.8624      0.00000
    111       7.9692      0.00000
    112       7.9697      0.00000
    113       8.2201      0.00000
    114       8.2319      0.00000
    115       8.2788      0.00000
    116       8.3142      0.00000

 k-point  60 :       0.5000    0.5000    0.5000
  band No.  band energies     occupation 
      1     -24.6785      2.00000
      2     -24.6784      2.00000
      3     -24.6782      2.00000
      4     -24.6779      2.00000
      5     -24.4358      2.00000
      6     -24.4357      2.00000
      7     -24.4355      2.00000
      8     -24.4354      2.00000
      9     -22.6485      2.00000
     10     -22.6481      2.00000
     11     -22.6479      2.00000
     12     -22.6468      2.00000
     13     -18.4644      2.00000
     14     -18.4642      2.00000
     15     -18.4637      2.00000
     16     -18.4635      2.00000
     17     -18.4470      2.00000
     18     -18.4469      2.00000
     19     -18.4463      2.00000
     20     -18.4462      2.00000
     21     -18.4074      2.00000
     22     -18.4070      2.00000
     23     -18.4068      2.00000
     24     -18.4060      2.00000
     25      -9.1821      2.00000
     26      -9.1821      2.00000
     27      -9.1820      2.00000
     28      -9.1819      2.00000
     29      -9.0092      2.00000
     30      -9.0091      2.00000
     31      -9.0091      2.00000
     32      -9.0089      2.00000
     33      -8.8904      2.00000
     34      -8.8904      2.00000
     35      -8.8902      2.00000
     36      -8.8901      2.00000
     37      -8.6795      2.00000
     38      -8.6794      2.00000
     39      -8.6794      2.00000
     40      -8.6794      2.00000
     41      -8.6171      2.00000
     42      -8.6171      2.00000
     43      -8.6169      2.00000
     44      -8.6169      2.00000
     45      -8.5971      2.00000
     46      -8.5971      2.00000
     47      -8.5970      2.00000
     48      -8.5970      2.00000
     49      -7.8257      2.00000
     50      -7.8256      2.00000
     51      -7.8256      2.00000
     52      -7.8254      2.00000
     53      -5.6736      2.00000
     54      -5.6734      2.00000
     55      -5.6732      2.00000
     56      -5.6731      2.00000
     57      -5.6494      2.00000
     58      -5.6493      2.00000
     59      -5.6491      2.00000
     60      -5.6490      2.00000
     61      -5.5128      2.00000
     62      -5.5128      2.00000
     63      -5.5128      2.00000
     64      -5.5122      2.00000
     65      -2.7611      2.00000
     66      -2.7609      2.00000
     67      -2.7609      2.00000
     68      -2.7603      2.00000
     69      -2.6148      2.00000
     70      -2.6146      2.00000
     71      -2.6144      2.00000
     72      -2.6140      2.00000
     73      -2.4982      2.00000
     74      -2.4980      2.00000
     75      -2.4978      2.00000
     76      -2.4977      2.00000
     77      -2.2427      2.00000
     78      -2.2426      2.00000
     79      -2.2423      2.00000
     80      -2.2421      2.00000
     81      -2.1808      2.00000
     82      -2.1807      2.00000
     83      -2.1805      2.00000
     84      -2.1802      2.00000
     85      -0.5165      2.00000
     86      -0.5164      2.00000
     87      -0.5163      2.00000
     88      -0.5160      2.00000
     89      -0.4076      2.00000
     90      -0.4076      2.00000
     91      -0.4074      2.00000
     92      -0.4072      2.00000
     93      -0.3550      2.00000
     94      -0.3549      2.00000
     95      -0.3547      2.00000
     96      -0.3546      2.00000
     97       7.0914      0.00000
     98       7.0915      0.00000
     99       7.0916      0.00000
    100       7.0917      0.00000
    101       7.3084      0.00000
    102       7.3084      0.00000
    103       7.3085      0.00000
    104       7.3086      0.00000
    105       7.4536      0.00000
    106       7.4537      0.00000
    107       7.4538      0.00000
    108       7.4540      0.00000
    109       7.8961      0.00000
    110       7.8962      0.00000
    111       7.8963      0.00000
    112       7.8965      0.00000
    113       8.2656      0.00000
    114       8.2664      0.00000
    115       8.2686      0.00000
    116       8.3467      0.00000


--------------------------------------------------------------------------------------------------------


 soft charge-density along one line, spin component           1
         0         1         2         3         4         5         6         7         8         9
 total charge-density along one line
 
 pseudopotential strength for first ion, spin component:           1
 12.755  -0.357  -0.048   0.085  -0.039   0.003  -0.005   0.002
 -0.357   0.086   0.006  -0.010   0.005  -0.001   0.002  -0.001
 -0.048   0.006  -9.087   0.064  -0.028  -0.063  -0.011   0.005
  0.085  -0.010   0.064  -9.168   0.051  -0.011  -0.050  -0.008
 -0.039   0.005  -0.028   0.051  -9.074   0.005  -0.008  -0.065
  0.003  -0.001  -0.063  -0.011   0.005   0.239   0.003  -0.001
 -0.005   0.002  -0.011  -0.050  -0.008   0.003   0.235   0.003
  0.002  -0.001   0.005  -0.008  -0.065  -0.001   0.003   0.239
 total augmentation occupancy for first ion, spin component:           1
  1.875   0.140  -0.057   0.102  -0.047   0.019  -0.033   0.015
  0.140   0.044   0.066  -0.117   0.053   0.020  -0.036   0.016
 -0.057   0.066   1.604   0.084  -0.036   0.152  -0.044   0.019
  0.102  -0.117   0.084   1.496   0.068  -0.044   0.208  -0.035
 -0.047   0.053  -0.036   0.068   1.623   0.019  -0.035   0.143
  0.019   0.020   0.152  -0.044   0.019   0.023  -0.017   0.007
 -0.033  -0.036  -0.044   0.208  -0.035  -0.017   0.044  -0.013
  0.015   0.016   0.019  -0.035   0.143   0.007  -0.013   0.020


------------------------ aborting loop because EDIFF is reached ----------------------------------------


 


 total charge     
 
# of ion     s       p       d       tot
----------------------------------------
  1        1.581   3.551   0.000   5.132
  2        1.581   3.551   0.000   5.132
  3        1.581   3.551   0.000   5.132
  4        1.581   3.551   0.000   5.132
  5        1.581   3.551   0.000   5.132
  6        1.581   3.551   0.000   5.132
  7        1.581   3.551   0.000   5.132
  8        1.580   3.553   0.000   5.133
  9        1.580   3.553   0.000   5.133
 10        1.580   3.553   0.000   5.133
 11        1.580   3.553   0.000   5.133
 12        1.582   3.548   0.000   5.130
 13        1.582   3.548   0.000   5.130
 14        1.582   3.548   0.000   5.130
 15        1.582   3.548   0.000   5.130
 16        1.581   3.551   0.000   5.132
 17        1.936   5.359   0.020   7.314
 18        1.936   5.359   0.020   7.314
 19        1.936   5.359   0.020   7.314
 20        1.936   5.359   0.020   7.314
 21        1.935   5.357   0.018   7.310
 22        1.935   5.357   0.018   7.310
 23        1.935   5.357   0.018   7.310
 24        1.935   5.357   0.018   7.310
 25        1.230   2.255   0.000   3.485
 26        1.230   2.255   0.000   3.485
 27        1.229   2.255   0.000   3.485
 28        1.230   2.255   0.000   3.485
------------------------------------------------
tot       45.698 108.693   0.152 154.543
 
    CHARGE:  cpu time    7.11: real time    7.12
    FORLOC:  cpu time    0.03: real time    0.03
    FORNL :  cpu time   33.43: real time   33.49
    STRESS:  cpu time   99.56: real time   99.75
    FORCOR:  cpu time    0.14: real time    0.14
    FORHAR:  cpu time    0.06: real time    0.06
    MIXING:  cpu time    0.00: real time    0.00
    FORVDW:  cpu time    0.00: real time    0.00

  FORCE on cell =-STRESS in cart. coord.  units (eV):
  Direction    XX          YY          ZZ          XY          YZ          ZX
  --------------------------------------------------------------------------------------
  Alpha Z   693.95649   693.95649   693.95649
  Ewald   -3032.66577 -3014.56767 -2981.32662    -0.00214     0.00000    -0.00258
  Hartree  1364.56439  1384.72004  1411.28074     0.00000     0.00000     0.00000
  E(xc)    -836.03288  -836.13744  -836.09057    -0.00001     0.00000     0.00001
  Local   -1221.45906 -1260.52548 -1320.91508     0.00164     0.00000     0.00268
  n-local  -469.09443  -470.94159  -470.46784     0.00074     0.00389     0.01512
  augment    38.47309    38.58035    38.57653    -0.00001     0.00000     0.00006
  Kinetic  3461.95058  3465.01406  3464.96636    -0.00304    -0.04386    -0.11040
  Fock        0.00000     0.00000     0.00000     0.00000     0.00000     0.00000
  -------------------------------------------------------------------------------------
  Total      -0.30759     0.09876    -0.01999     0.00000     0.00000     0.00000
  in kB      -0.95726     0.30734    -0.06221     0.00000     0.00000     0.00000
  external pressure =       -0.24 kB  Pullay stress =        0.00 kB


 VOLUME and BASIS-vectors are now :
 -----------------------------------------------------------------------------
  energy-cutoff  :      500.00
  volume of cell :      514.82
      direct lattice vectors                 reciprocal lattice vectors
     8.016444736  0.000000000  0.000000000     0.124743578  0.000000000  0.000000000
     0.000000000 10.608273048  0.000000000     0.000000000  0.094266050  0.000000000
     0.000000000  0.000000000  6.053806714     0.000000000  0.000000000  0.165185320

  length of vectors
     8.016444736 10.608273048  6.053806714     0.124743578  0.094266050  0.165185320


 FORCES acting on ions
    electron-ion (+dipol)            ewald-force                    non-local-force                 convergence-correction
 -----------------------------------------------------------------------------------------------
   0.877E+02 0.108E+03 -.188E+03   -.104E+03 -.128E+03 0.223E+03   0.159E+02 0.195E+02 -.348E+02   0.755E-02 0.121E-02 -.898E-02
   -.877E+02 -.108E+03 -.188E+03   0.104E+03 0.128E+03 0.223E+03   -.159E+02 -.195E+02 -.348E+02   -.756E-02 -.123E-02 -.898E-02
   0.877E+02 -.108E+03 0.188E+03   -.104E+03 0.128E+03 -.223E+03   0.159E+02 -.195E+02 0.348E+02   0.755E-02 -.112E-02 0.898E-02
   0.877E+02 -.108E+03 -.188E+03   -.104E+03 0.128E+03 0.223E+03   0.159E+02 -.195E+02 -.348E+02   0.755E-02 -.112E-02 -.898E-02
   -.877E+02 -.108E+03 0.188E+03   0.104E+03 0.128E+03 -.223E+03   -.159E+02 -.195E+02 0.348E+02   -.756E-02 -.123E-02 0.898E-02
   0.877E+02 0.108E+03 0.188E+03   -.104E+03 -.128E+03 -.223E+03   0.159E+02 0.195E+02 0.348E+02   0.755E-02 0.121E-02 0.898E-02
   -.877E+02 0.108E+03 -.188E+03   0.104E+03 -.128E+03 0.223E+03   -.159E+02 0.195E+02 -.348E+02   -.753E-02 0.114E-02 -.898E-02
   -.783E+02 -.221E+03 0.102E-01   0.917E+02 0.262E+03 0.187E-02   -.133E+02 -.405E+02 0.271E-19   -.156E-02 -.736E-02 -.607E-05
   0.783E+02 -.221E+03 -.790E-02   -.917E+02 0.262E+03 -.187E-02   0.133E+02 -.405E+02 0.000E+00   0.158E-02 -.744E-02 0.610E-05
   -.783E+02 0.221E+03 0.111E-01   0.917E+02 -.262E+03 0.187E-02   -.133E+02 0.405E+02 0.000E+00   -.158E-02 0.740E-02 -.614E-05
   0.783E+02 0.221E+03 -.884E-02   -.917E+02 -.262E+03 -.187E-02   0.133E+02 0.405E+02 -.271E-19   0.157E-02 0.740E-02 0.617E-05
   0.234E+03 0.189E+02 0.104E-01   -.278E+03 -.216E+02 0.174E-02   0.441E+02 0.279E+01 0.542E-19   -.946E-02 0.188E-02 -.643E-05
   -.234E+03 0.189E+02 -.806E-02   0.278E+03 -.216E+02 -.174E-02   -.441E+02 0.279E+01 -.108E-18   0.945E-02 0.191E-02 0.627E-05
   0.234E+03 -.189E+02 0.111E-01   -.278E+03 0.216E+02 0.174E-02   0.441E+02 -.279E+01 0.108E-18   -.943E-02 -.194E-02 -.652E-05
   -.234E+03 -.189E+02 -.871E-02   0.278E+03 0.216E+02 -.174E-02   -.441E+02 -.279E+01 -.163E-18   0.942E-02 -.184E-02 0.636E-05
   -.877E+02 0.108E+03 0.188E+03   0.104E+03 -.128E+03 -.223E+03   -.159E+02 0.195E+02 0.348E+02   -.753E-02 0.114E-02 0.898E-02
   0.309E+01 -.296E+02 0.429E-02   -.270E+01 0.293E+02 0.271E-02   -.390E+00 0.361E+00 0.000E+00   -.180E-02 -.268E-02 -.768E-05
   -.309E+01 -.296E+02 -.376E-02   0.270E+01 0.293E+02 -.271E-02   0.390E+00 0.361E+00 -.271E-19   0.180E-02 -.285E-02 0.782E-05
   0.309E+01 0.296E+02 0.196E-02   -.270E+01 -.293E+02 0.271E-02   -.390E+00 -.361E+00 -.678E-19   -.176E-02 0.284E-02 -.734E-05
   -.309E+01 0.296E+02 -.143E-02   0.270E+01 -.293E+02 -.271E-02   0.390E+00 -.361E+00 -.271E-19   0.175E-02 0.270E-02 0.749E-05
   -.601E+01 0.523E+01 0.373E-02   0.615E+01 -.483E+01 0.292E-02   -.146E+00 -.394E+00 0.542E-19   0.209E-02 0.336E-03 -.750E-05
   0.601E+01 0.523E+01 -.259E-02   -.615E+01 -.483E+01 -.292E-02   0.146E+00 -.394E+00 0.108E-18   -.211E-02 0.378E-03 0.748E-05
   -.601E+01 -.523E+01 0.300E-02   0.615E+01 0.484E+01 0.292E-02   -.146E+00 0.394E+00 0.542E-19   0.209E-02 -.429E-03 -.750E-05
   0.600E+01 -.523E+01 -.187E-02   -.615E+01 0.483E+01 -.292E-02   0.146E+00 0.394E+00 -.542E-19   -.207E-02 -.289E-03 0.747E-05
   0.468E+00 -.133E+01 0.338E-02   -.114E+01 0.155E+01 0.300E-02   0.621E+00 -.213E+00 0.108E-18   -.286E-02 0.250E-02 -.541E-05
   -.468E+00 -.133E+01 -.253E-02   0.114E+01 0.154E+01 -.300E-02   -.621E+00 -.213E+00 -.136E-18   0.285E-02 0.258E-02 0.535E-05
   0.468E+00 0.133E+01 -.117E-03   -.114E+01 -.155E+01 0.300E-02   0.621E+00 0.213E+00 -.813E-19   -.285E-02 -.255E-02 -.537E-05
   -.467E+00 0.133E+01 0.966E-03   0.114E+01 -.154E+01 -.300E-02   -.621E+00 0.213E+00 -.108E-18   0.286E-02 -.253E-02 0.531E-05
 -----------------------------------------------------------------------------------------------
   -.148E+00 0.163E-01 0.203E-01   -.500E-13 -.172E-12 0.695E-13   -.355E-14 0.722E-14 0.142E-13   0.222E-05 -.118E-05 -.522E-06
 
 
 POSITION                                       TOTAL-FORCE (eV/Angst)
 -----------------------------------------------------------------------------------
      1.55060      9.07379      5.76538         0.011007      0.001408     -0.012315
      6.46585      1.53447      2.73847        -0.011007     -0.001408     -0.012315
      5.55882      6.83861      3.31533         0.011007     -0.001408      0.012315
      5.55882      6.83861      5.76538         0.011007     -0.001408     -0.012315
      6.46585      1.53447      0.28842        -0.011007     -0.001408      0.012315
      1.55060      9.07379      3.31533         0.011007      0.001408      0.012315
      2.45764      3.76965      2.73847        -0.011007      0.001408     -0.012315
      2.36449      5.87931      1.51344         0.008508     -0.009262      0.000000
      1.64373      0.57518      4.54036        -0.008508     -0.009262      0.000000
      6.37271     10.03310      1.51344         0.008508      0.009262      0.000000
      5.65196      4.72896      4.54036        -0.008508      0.009262      0.000000
      0.42757      4.36548      1.51344         0.028757      0.017515      0.000000
      3.58064      9.66961      4.54036        -0.028757      0.017515      0.000000
      4.43580      0.93866      1.51344         0.028757     -0.017515      0.000000
      7.58887      6.24280      4.54036        -0.028757     -0.017515      0.000000
      2.45764      3.76965      0.28842        -0.011007      0.001408      0.012315
      7.91663      7.41553      1.51344        -0.003040      0.009058      0.000000
      4.10803      2.11139      4.54036         0.003040      0.009058      0.000000
      3.90841      8.49689      1.51344        -0.003040     -0.009058      0.000000
      0.09980      3.19275      4.54036         0.003040     -0.009058      0.000000
      5.41071      4.33864      1.51344        -0.002924      0.000730      0.000000
      6.61396      9.64277      4.54036         0.002924      0.000730      0.000000
      1.40248      0.96549      1.51344        -0.002924     -0.000730      0.000000
      2.60575      6.26963      4.54036         0.002924     -0.000730      0.000000
      5.92588      0.85875      1.51344        -0.052822      0.005120      0.000000
      6.09879      6.16288      4.54036         0.052822      0.005120      0.000000
      1.91766      4.44539      1.51344        -0.052822     -0.005120      0.000000
      2.09056      9.74953      4.54036         0.052822     -0.005120      0.000000
 -----------------------------------------------------------------------------------
    total drift:                               -0.147664      0.016257      0.020287


--------------------------------------------------------------------------------------------------------



  FREE ENERGIE OF THE ION-ELECTRON SYSTEM (eV)
  ---------------------------------------------------
  free  energy   TOTEN  =      -155.89901422 eV

  energy  without entropy=     -155.89901422  energy(sigma->0) =     -155.89901422
 
 d Force = 0.1245935E-03[ 0.437E-04, 0.205E-03]  d Energy = 0.1315287E-03-0.694E-05
 d Force =-0.1331417E+00[-0.133E+00,-0.133E+00]  d Ewald  = 0.1319920E+01-0.145E+01


--------------------------------------------------------------------------------------------------------


    POTLOK:  cpu time    0.14: real time    0.14


--------------------------------------------------------------------------------------------------------




--------------------------------------------------------------------------------------------------------


  
 reached required accuracy - stopping structural energy minimisation
     LOOP+:  cpu time  440.15: real time  440.99
    4ORBIT:  cpu time    0.00: real time    0.00
 


 total charge     
 
# of ion     s       p       d       tot
----------------------------------------
  1        1.581   3.551   0.000   5.132
  2        1.581   3.551   0.000   5.132
  3        1.581   3.551   0.000   5.132
  4        1.581   3.551   0.000   5.132
  5        1.581   3.551   0.000   5.132
  6        1.581   3.551   0.000   5.132
  7        1.581   3.551   0.000   5.132
  8        1.580   3.553   0.000   5.133
  9        1.580   3.553   0.000   5.133
 10        1.580   3.553   0.000   5.133
 11        1.580   3.553   0.000   5.133
 12        1.582   3.548   0.000   5.130
 13        1.582   3.548   0.000   5.130
 14        1.582   3.548   0.000   5.130
 15        1.582   3.548   0.000   5.130
 16        1.581   3.551   0.000   5.132
 17        1.936   5.359   0.020   7.314
 18        1.936   5.359   0.020   7.314
 19        1.936   5.359   0.020   7.314
 20        1.936   5.359   0.020   7.314
 21        1.935   5.357   0.018   7.310
 22        1.935   5.357   0.018   7.310
 23        1.935   5.357   0.018   7.310
 24        1.935   5.357   0.018   7.310
 25        1.230   2.255   0.000   3.485
 26        1.230   2.255   0.000   3.485
 27        1.229   2.255   0.000   3.485
 28        1.230   2.255   0.000   3.485
------------------------------------------------
tot       45.698 108.693   0.152 154.543
 

 total amount of memory used by VASP on root node   236106. kBytes
========================================================================

   base      :      30000. kBytes
   nonlr-proj:       4755. kBytes
   fftplans  :       5072. kBytes
   grid      :       8359. kBytes
   one-center:         56. kBytes
   wavefun   :     187864. kBytes
 
  
  
 General timing and accounting informations for this job:
 ========================================================
  
                  Total CPU time used (sec):     2737.916
                            User time (sec):     2731.080
                          System time (sec):        6.836
                         Elapsed time (sec):     2744.861
  
                   Maximum memory used (kb):      619504.
                   Average memory used (kb):           0.
  
                          Minor page faults:      2532642
                          Major page faults:            0
                 Voluntary context switches:        14988
