 vasp.5.3.2 13Sep12 (build Mar 19 2013 12:21:59) complex                        
  
 executed on             LinuxIFC date 2013.08.11  06:07:13
 running on    8 total cores
 distrk:  each k-point on    8 cores,    1 groups
 distr:  one band on NCORES_PER_BAND=   4 cores,    2 groups


--------------------------------------------------------------------------------------------------------


 INCAR:
 POTCAR:  PAW_PBE Li_sv 23Jan2001                 
 POTCAR:  PAW_PBE O 08Apr2002                     
 POTCAR:  PAW_PBE S 17Jan2003                     
 POTCAR:  PAW_PBE Li_sv 23Jan2001                 
   VRHFIN =Li: 1s2s2p                                                           
   LEXCH  = PE                                                                  
   EATOM  =   202.7858 eV,   14.9043 Ry                                         
                                                                                
   TITEL  = PAW_PBE Li_sv 23Jan2001                                             
   LULTRA =        F    use ultrasoft PP ?                                      
   IUNSCR =        0    unscreen: 0-lin 1-nonlin 2-no                           
   RPACOR =     .000    partial core radius                                     
   POMASS =    7.010; ZVAL   =    3.000    mass and valenz                      
   RCORE  =    2.050    outmost cutoff radius                                   
   RWIGS  =    2.050; RWIGS  =    1.085    wigner-seitz radius (au A)           
   ENMAX  =  271.649; ENMIN  =  203.737 eV                                      
   ICORE  =        2    local potential                                         
   LCOR   =        T    correct aug charges                                     
   LPAW   =        T    paw PP                                                  
   EAUG   =  428.394                                                            
   RMAX   =    2.797    core radius for proj-oper                               
   RAUG   =    1.300    factor for augmentation sphere                          
   RDEP   =    2.094    radius for radial grids                                 
   RDEPT  =    1.550    core radius for aug-charge                              
   QCUT   =   -4.468; QGAM   =    8.937    optimization parameters              
                                                                                
   Description                                                                  
     l     E      TYP  RCUT    TYP  RCUT                                        
     0   .000     23  1.550                                                     
     0   .000     23  2.050                                                     
     0   .000     23  1.550                                                     
     0   .000     23  2.050                                                     
     1  -.200     23  2.050                                                     
     1  1.500     23  2.050                                                     
     2   .000      7  1.550                                                     
  local pseudopotential read in
  atomic valenz-charges read in
  non local Contribution for L=           0  read in
    real space projection operators read in
  non local Contribution for L=           0  read in
    real space projection operators read in
  non local Contribution for L=           1  read in
    real space projection operators read in
  non local Contribution for L=           1  read in
    real space projection operators read in
    PAW grid and wavefunctions read in
 
   number of l-projection  operators is LMAX  =           4
   number of lm-projection operators is LMMAX =           8
 
 POTCAR:  PAW_PBE O 08Apr2002                     
   VRHFIN =O: s2p4                                                              
   LEXCH  = PE                                                                  
   EATOM  =   432.3788 eV,   31.7789 Ry                                         
                                                                                
   TITEL  = PAW_PBE O 08Apr2002                                                 
   LULTRA =        F    use ultrasoft PP ?                                      
   IUNSCR =        0    unscreen: 0-lin 1-nonlin 2-no                           
   RPACOR =     .000    partial core radius                                     
   POMASS =   16.000; ZVAL   =    6.000    mass and valenz                      
   RCORE  =    1.520    outmost cutoff radius                                   
   RWIGS  =    1.550; RWIGS  =     .820    wigner-seitz radius (au A)           
   ENMAX  =  400.000; ENMIN  =  300.000 eV                                      
   ICORE  =        2    local potential                                         
   LCOR   =        T    correct aug charges                                     
   LPAW   =        T    paw PP                                                  
   EAUG   =  605.392                                                            
   DEXC   =     .000                                                            
   RMAX   =    2.264    core radius for proj-oper                               
   RAUG   =    1.300    factor for augmentation sphere                          
   RDEP   =    1.550    radius for radial grids                                 
   QCUT   =   -5.520; QGAM   =   11.041    optimization parameters              
                                                                                
   Description                                                                  
     l     E      TYP  RCUT    TYP  RCUT                                        
     0   .000     23  1.200                                                     
     0  -.700     23  1.200                                                     
     1   .000     23  1.520                                                     
     1   .600     23  1.520                                                     
     2   .000      7  1.500                                                     
  local pseudopotential read in
  atomic valenz-charges read in
  non local Contribution for L=           0  read in
    real space projection operators read in
  non local Contribution for L=           0  read in
    real space projection operators read in
  non local Contribution for L=           1  read in
    real space projection operators read in
  non local Contribution for L=           1  read in
    real space projection operators read in
    PAW grid and wavefunctions read in
 
   number of l-projection  operators is LMAX  =           4
   number of lm-projection operators is LMMAX =           8
 
 POTCAR:  PAW_PBE S 17Jan2003                     
   VRHFIN =S : s2p4                                                             
   LEXCH  = PE                                                                  
   EATOM  =   276.8230 eV,   20.3459 Ry                                         
                                                                                
   TITEL  = PAW_PBE S 17Jan2003                                                 
   LULTRA =        F    use ultrasoft PP ?                                      
   IUNSCR =        1    unscreen: 0-lin 1-nonlin 2-no                           
   RPACOR =    1.500    partial core radius                                     
   POMASS =   32.066; ZVAL   =    6.000    mass and valenz                      
   RCORE  =    1.900    outmost cutoff radius                                   
   RWIGS  =    2.200; RWIGS  =    1.164    wigner-seitz radius (au A)           
   ENMAX  =  280.000; ENMIN  =  194.016 eV                                      
   ICORE  =        2    local potential                                         
   LCOR   =        T    correct aug charges                                     
   LPAW   =        T    paw PP                                                  
   EAUG   =  335.092                                                            
   DEXC   =     .000                                                            
   RMAX   =    2.867    core radius for proj-oper                               
   RAUG   =    1.300    factor for augmentation sphere                          
   RDEP   =    1.954    radius for radial grids                                 
   QCUT   =   -4.360; QGAM   =    8.721    optimization parameters              
                                                                                
   Description                                                                  
     l     E      TYP  RCUT    TYP  RCUT                                        
     0   .000     23  1.900                                                     
     0   .000     23  1.900                                                     
     1   .000     23  1.900                                                     
     1   .000     23  1.900                                                     
     2   .000     23  1.900                                                     
  local pseudopotential read in
  partial core-charges read in
  atomic valenz-charges read in
  non local Contribution for L=           0  read in
    real space projection operators read in
  non local Contribution for L=           0  read in
    real space projection operators read in
  non local Contribution for L=           1  read in
    real space projection operators read in
  non local Contribution for L=           1  read in
    real space projection operators read in
    PAW grid and wavefunctions read in
 
   number of l-projection  operators is LMAX  =           4
   number of lm-projection operators is LMMAX =           8
 
PAW_PBE Li_sv 23Jan2001                 :
 energy of atom  1       EATOM= -202.7858
 kinetic energy error for atom=    0.0025 (will be added to EATOM!!)
PAW_PBE O 08Apr2002                     :
 energy of atom  2       EATOM= -432.3788
 kinetic energy error for atom=    0.0224 (will be added to EATOM!!)
PAW_PBE S 17Jan2003                     :
 energy of atom  3       EATOM= -276.8230
 kinetic energy error for atom=    0.0020 (will be added to EATOM!!)
 
 
 POSCAR: S O Li                                  
  positions in direct lattice
  No initial velocities read in
 exchange correlation table for  LEXCH =        8
   RHO(1)=    0.500       N(1)  =     2000
   RHO(2)=  100.500       N(2)  =     4000
 


--------------------------------------------------------------------------------------------------------


 ion  position               nearest neighbor table
   1  0.826  0.826  0.750-   9 1.99  10 1.99   5 2.11   6 2.11  13 2.63
   2  0.174  0.174  0.250-  11 1.99   8 1.99   7 2.11  12 2.11  14 2.63
   3  0.500  0.500  0.500-   9 2.07  11 2.07   5 2.21   6 2.21   7 2.21  12 2.21
   4  0.500  0.500  0.000-  10 2.07   8 2.07   7 2.21  12 2.21   5 2.21   6 2.21
   5  0.818  0.256  0.750-  13 1.50   1 2.11   3 2.21   4 2.21
   6  0.256  0.818  0.750-  13 1.50   1 2.11   3 2.21   4 2.21
   7  0.744  0.182  0.250-  14 1.50   2 2.11   4 2.21   3 2.21
   8  0.251  0.251  0.945-  13 1.48   2 1.99   4 2.07
   9  0.749  0.749  0.445-  14 1.48   1 1.99   3 2.07
  10  0.749  0.749  0.055-  14 1.48   1 1.99   4 2.07
  11  0.251  0.251  0.555-  13 1.48   2 1.99   3 2.07
  12  0.182  0.744  0.250-  14 1.50   2 2.11   4 2.21   3 2.21
  13  0.147  0.147  0.750-   8 1.48  11 1.48   5 1.50   6 1.50   1 2.63
  14  0.853  0.853  0.250-  10 1.48   9 1.48   7 1.50  12 1.50   2 2.63
 
  LATTYP: Found a base centered orthorhombic cell.
 ALAT       =     5.5034660000
 B/A-ratio  =     1.4912017263
 C/A-ratio  =     1.1246105636
  
  Lattice vectors:
  
 A1 = (   2.7517330000,   4.1033890000,   0.0000000000)
 A2 = (   2.7517330000,  -4.1033890000,   0.0000000000)
 A3 = (   0.0000000000,   0.0000000000,  -6.1892560000)


Analysis of symmetry for initial positions (statically):
=====================================================================
 Subroutine PRICEL returns:
 Original cell was already a primitive cell.
 

 Routine SETGRP: Setting up the symmetry group for a 
 base centered orthorhombic supercell.


 Subroutine GETGRP returns: Found  8 space group operations
 (whereof  4 operations were pure point group operations)
 out of a pool of  8 trial point group operations.


The static configuration has the point symmetry C_2h.
 The point group associated with its full space group is D_2h.


Analysis of symmetry for dynamics (positions and initial velocities):
=====================================================================
 Subroutine PRICEL returns:
 Original cell was already a primitive cell.
 

 Routine SETGRP: Setting up the symmetry group for a 
 base centered orthorhombic supercell.


 Subroutine GETGRP returns: Found  8 space group operations
 (whereof  4 operations were pure point group operations)
 out of a pool of  8 trial point group operations.


The dynamic configuration has the point symmetry C_2h.
 The point group associated with its full space group is D_2h.
 
 
 KPOINTS: KPOINTS                                 

Automatic generation of k-mesh.
Space group operators:
 irot       det(A)        alpha          n_x          n_y          n_z        tau_x        tau_y        tau_z
    1     1.000000     0.000000     1.000000     0.000000     0.000000     0.000000     0.000000     0.000000
    2    -1.000000     0.000000     1.000000     0.000000     0.000000     0.000000     0.000000     0.000000
    3     1.000000   179.999999     1.000000     0.000000     0.000000     0.000000     0.000000     0.000000
    4    -1.000000   179.999999     1.000000     0.000000     0.000000     0.000000     0.000000     0.000000
    5     1.000000   180.000000     0.000000     0.000000     1.000000     0.000000     0.000000    -0.500000
    6    -1.000000   180.000000     0.000000     0.000000     1.000000     0.000000     0.000000    -0.500001
    7     1.000000   180.000000     0.000000     1.000000     0.000000     0.000000     0.000000    -0.500001
    8    -1.000000   180.000000     0.000000     1.000000     0.000000     0.000000     0.000000    -0.500000
 
 Subroutine IBZKPT returns following result:
 ===========================================
 
 Found    100 irreducible k-points:
 
 Following reciprocal coordinates:
            Coordinates               Weight
  0.000000  0.000000  0.000000      1.000000
  0.111111  0.000000  0.000000      4.000000
  0.222222  0.000000  0.000000      4.000000
  0.333333  0.000000  0.000000      4.000000
  0.444444  0.000000  0.000000      4.000000
  0.111111  0.111111  0.000000      2.000000
  0.222222  0.111111  0.000000      4.000000
  0.333333  0.111111  0.000000      4.000000
  0.444444  0.111111  0.000000      4.000000
 -0.444444  0.111111  0.000000      4.000000
 -0.333333  0.111111  0.000000      4.000000
 -0.222222  0.111111  0.000000      4.000000
 -0.111111  0.111111  0.000000      2.000000
  0.222222  0.222222  0.000000      2.000000
  0.333333  0.222222  0.000000      4.000000
  0.444444  0.222222  0.000000      4.000000
 -0.444444  0.222222  0.000000      4.000000
 -0.333333  0.222222  0.000000      4.000000
 -0.222222  0.222222  0.000000      2.000000
  0.333333  0.333333  0.000000      2.000000
  0.444444  0.333333  0.000000      4.000000
 -0.444444  0.333333  0.000000      4.000000
 -0.333333  0.333333  0.000000      2.000000
  0.444444  0.444444  0.000000      2.000000
 -0.444444  0.444444  0.000000      2.000000
  0.000000  0.000000  0.166667      2.000000
  0.111111  0.000000  0.166667      8.000000
  0.222222  0.000000  0.166667      8.000000
  0.333333  0.000000  0.166667      8.000000
  0.444444  0.000000  0.166667      8.000000
  0.111111  0.111111  0.166667      4.000000
  0.222222  0.111111  0.166667      8.000000
  0.333333  0.111111  0.166667      8.000000
  0.444444  0.111111  0.166667      8.000000
 -0.444444  0.111111  0.166667      8.000000
 -0.333333  0.111111  0.166667      8.000000
 -0.222222  0.111111  0.166667      8.000000
 -0.111111  0.111111  0.166667      4.000000
  0.222222  0.222222  0.166667      4.000000
  0.333333  0.222222  0.166667      8.000000
  0.444444  0.222222  0.166667      8.000000
 -0.444444  0.222222  0.166667      8.000000
 -0.333333  0.222222  0.166667      8.000000
 -0.222222  0.222222  0.166667      4.000000
  0.333333  0.333333  0.166667      4.000000
  0.444444  0.333333  0.166667      8.000000
 -0.444444  0.333333  0.166667      8.000000
 -0.333333  0.333333  0.166667      4.000000
  0.444444  0.444444  0.166667      4.000000
 -0.444444  0.444444  0.166667      4.000000
  0.000000  0.000000  0.333333      2.000000
  0.111111  0.000000  0.333333      8.000000
  0.222222  0.000000  0.333333      8.000000
  0.333333  0.000000  0.333333      8.000000
  0.444444  0.000000  0.333333      8.000000
  0.111111  0.111111  0.333333      4.000000
  0.222222  0.111111  0.333333      8.000000
  0.333333  0.111111  0.333333      8.000000
  0.444444  0.111111  0.333333      8.000000
 -0.444444  0.111111  0.333333      8.000000
 -0.333333  0.111111  0.333333      8.000000
 -0.222222  0.111111  0.333333      8.000000
 -0.111111  0.111111  0.333333      4.000000
  0.222222  0.222222  0.333333      4.000000
  0.333333  0.222222  0.333333      8.000000
  0.444444  0.222222  0.333333      8.000000
 -0.444444  0.222222  0.333333      8.000000
 -0.333333  0.222222  0.333333      8.000000
 -0.222222  0.222222  0.333333      4.000000
  0.333333  0.333333  0.333333      4.000000
  0.444444  0.333333  0.333333      8.000000
 -0.444444  0.333333  0.333333      8.000000
 -0.333333  0.333333  0.333333      4.000000
  0.444444  0.444444  0.333333      4.000000
 -0.444444  0.444444  0.333333      4.000000
  0.000000  0.000000  0.500000      1.000000
  0.111111  0.000000  0.500000      4.000000
  0.222222  0.000000  0.500000      4.000000
  0.333333  0.000000  0.500000      4.000000
  0.444444  0.000000  0.500000      4.000000
  0.111111  0.111111  0.500000      2.000000
  0.222222  0.111111  0.500000      4.000000
  0.333333  0.111111  0.500000      4.000000
  0.444444  0.111111  0.500000      4.000000
 -0.444444  0.111111  0.500000      4.000000
 -0.333333  0.111111  0.500000      4.000000
 -0.222222  0.111111  0.500000      4.000000
 -0.111111  0.111111  0.500000      2.000000
  0.222222  0.222222  0.500000      2.000000
  0.333333  0.222222  0.500000      4.000000
  0.444444  0.222222  0.500000      4.000000
 -0.444444  0.222222  0.500000      4.000000
 -0.333333  0.222222  0.500000      4.000000
 -0.222222  0.222222  0.500000      2.000000
  0.333333  0.333333  0.500000      2.000000
  0.444444  0.333333  0.500000      4.000000
 -0.444444  0.333333  0.500000      4.000000
 -0.333333  0.333333  0.500000      2.000000
  0.444444  0.444444  0.500000      2.000000
 -0.444444  0.444444  0.500000      2.000000
 
 Following cartesian coordinates:
            Coordinates               Weight
  0.000000  0.000000  0.000000      1.000000
  0.020189  0.013539  0.000000      4.000000
  0.040379  0.027078  0.000000      4.000000
  0.060568  0.040617  0.000000      4.000000
  0.080757  0.054156  0.000000      4.000000
  0.000000  0.027078  0.000000      2.000000
  0.020189  0.040617  0.000000      4.000000
  0.040379  0.054156  0.000000      4.000000
  0.060568  0.067695  0.000000      4.000000
 -0.100946 -0.040617  0.000000      4.000000
 -0.080757 -0.027078  0.000000      4.000000
 -0.060568 -0.013539  0.000000      4.000000
 -0.040379  0.000000  0.000000      2.000000
  0.000000  0.054156  0.000000      2.000000
  0.020189  0.067695  0.000000      4.000000
  0.040379  0.081234  0.000000      4.000000
 -0.121136 -0.027078  0.000000      4.000000
 -0.100946 -0.013539  0.000000      4.000000
 -0.080757  0.000000  0.000000      2.000000
  0.000000  0.081234  0.000000      2.000000
  0.020189  0.094773  0.000000      4.000000
 -0.141325 -0.013539  0.000000      4.000000
 -0.121136  0.000000  0.000000      2.000000
  0.000000  0.108312  0.000000      2.000000
 -0.161514  0.000000  0.000000      2.000000
  0.000000  0.000000  0.026928      2.000000
  0.020189  0.013539  0.026928      8.000000
  0.040379  0.027078  0.026928      8.000000
  0.060568  0.040617  0.026928      8.000000
  0.080757  0.054156  0.026928      8.000000
  0.000000  0.027078  0.026928      4.000000
  0.020189  0.040617  0.026928      8.000000
  0.040379  0.054156  0.026928      8.000000
  0.060568  0.067695  0.026928      8.000000
 -0.100946 -0.040617  0.026928      8.000000
 -0.080757 -0.027078  0.026928      8.000000
 -0.060568 -0.013539  0.026928      8.000000
 -0.040379  0.000000  0.026928      4.000000
  0.000000  0.054156  0.026928      4.000000
  0.020189  0.067695  0.026928      8.000000
  0.040379  0.081234  0.026928      8.000000
 -0.121136 -0.027078  0.026928      8.000000
 -0.100946 -0.013539  0.026928      8.000000
 -0.080757  0.000000  0.026928      4.000000
  0.000000  0.081234  0.026928      4.000000
  0.020189  0.094773  0.026928      8.000000
 -0.141325 -0.013539  0.026928      8.000000
 -0.121136  0.000000  0.026928      4.000000
  0.000000  0.108312  0.026928      4.000000
 -0.161514  0.000000  0.026928      4.000000
  0.000000  0.000000  0.053857      2.000000
  0.020189  0.013539  0.053857      8.000000
  0.040379  0.027078  0.053857      8.000000
  0.060568  0.040617  0.053857      8.000000
  0.080757  0.054156  0.053857      8.000000
  0.000000  0.027078  0.053857      4.000000
  0.020189  0.040617  0.053857      8.000000
  0.040379  0.054156  0.053857      8.000000
  0.060568  0.067695  0.053857      8.000000
 -0.100946 -0.040617  0.053857      8.000000
 -0.080757 -0.027078  0.053857      8.000000
 -0.060568 -0.013539  0.053857      8.000000
 -0.040379  0.000000  0.053857      4.000000
  0.000000  0.054156  0.053857      4.000000
  0.020189  0.067695  0.053857      8.000000
  0.040379  0.081234  0.053857      8.000000
 -0.121136 -0.027078  0.053857      8.000000
 -0.100946 -0.013539  0.053857      8.000000
 -0.080757  0.000000  0.053857      4.000000
  0.000000  0.081234  0.053857      4.000000
  0.020189  0.094773  0.053857      8.000000
 -0.141325 -0.013539  0.053857      8.000000
 -0.121136  0.000000  0.053857      4.000000
  0.000000  0.108312  0.053857      4.000000
 -0.161514  0.000000  0.053857      4.000000
  0.000000  0.000000  0.080785      1.000000
  0.020189  0.013539  0.080785      4.000000
  0.040379  0.027078  0.080785      4.000000
  0.060568  0.040617  0.080785      4.000000
  0.080757  0.054156  0.080785      4.000000
  0.000000  0.027078  0.080785      2.000000
  0.020189  0.040617  0.080785      4.000000
  0.040379  0.054156  0.080785      4.000000
  0.060568  0.067695  0.080785      4.000000
 -0.100946 -0.040617  0.080785      4.000000
 -0.080757 -0.027078  0.080785      4.000000
 -0.060568 -0.013539  0.080785      4.000000
 -0.040379  0.000000  0.080785      2.000000
  0.000000  0.054156  0.080785      2.000000
  0.020189  0.067695  0.080785      4.000000
  0.040379  0.081234  0.080785      4.000000
 -0.121136 -0.027078  0.080785      4.000000
 -0.100946 -0.013539  0.080785      4.000000
 -0.080757  0.000000  0.080785      2.000000
  0.000000  0.081234  0.080785      2.000000
  0.020189  0.094773  0.080785      4.000000
 -0.141325 -0.013539  0.080785      4.000000
 -0.121136  0.000000  0.080785      2.000000
  0.000000  0.108312  0.080785      2.000000
 -0.161514  0.000000  0.080785      2.000000
 


--------------------------------------------------------------------------------------------------------




 Dimension of arrays:
   k-points           NKPTS =    100   k-points in BZ     NKDIM =    100   number of bands    NBANDS=     44
   number of dos      NEDOS =    301   number of ions     NIONS =     14
   non local maximal  LDIM  =      4   non local SUM 2l+1 LMDIM =      8
   total plane-waves  NPLWV =  62208
   max r-space proj   IRMAX =      1   max aug-charges    IRDMAX=   5950
   dimension x,y,z NGX =    36 NGY =   36 NGZ =   48
   dimension x,y,z NGXF=    54 NGYF=   54 NGZF=   70
   support grid    NGXF=    54 NGYF=   54 NGZF=   70
   ions per type =               4   8   2
 NGX,Y,Z   is equivalent  to a cutoff of  12.11, 12.11, 12.89 a.u.
 NGXF,Y,Z  is equivalent  to a cutoff of  18.17, 18.17, 18.80 a.u.


 I would recommend the setting:
   dimension x,y,z NGX =    36 NGY =   36 NGZ =   45
 SYSTEM =  unknown system                          
 POSCAR =  S O Li                                  

 Startparameter for this run:
   NWRITE =      2    write-flag & timer
   PREC   = high      normal or accurate (medium, high low for compatibility)
   ISTART =      0    job   : 0-new  1-cont  2-samecut
   ICHARG =      1    charge: 1-file 2-atom 10-const
   ISPIN  =      1    spin polarized calculation?
   LNONCOLLINEAR =      F non collinear calculations
   LSORBIT =      F    spin-orbit coupling
   INIWAV =      1    electr: 0-lowe 1-rand  2-diag
   LASPH  =      F    aspherical Exc in radial PAW
   METAGGA=      F    non-selfconsistent MetaGGA calc.

 Electronic Relaxation 1
   ENCUT  =  500.0 eV  36.75 Ry    6.06 a.u.   9.01  9.01 11.28*2*pi/ulx,y,z
   ENINI  =  500.0     initial cutoff
   ENAUG  =  605.4 eV  augmentation charge cutoff
   NELM   =     60;   NELMIN=  2; NELMDL= -5     # of ELM steps 
   EDIFF  = 0.1E-03   stopping-criterion for ELM
   LREAL  =      F    real-space projection
   NLSPLINE    = F    spline interpolate recip. space projectors
   LCOMPAT=      F    compatible to vasp.4.4
   GGA_COMPAT  = T    GGA compatible to vasp.4.4-vasp.4.6
   LMAXPAW     = -100 max onsite density
   LMAXMIX     =    2 max onsite mixed and CHGCAR
   VOSKOWN=      0    Vosko Wilk Nusair interpolation
   ROPT   =    0.00000   0.00000   0.00000
 Ionic relaxation
   EDIFFG = 0.1E-02   stopping-criterion for IOM
   NSW    =    100    number of steps for IOM
   NBLOCK =      1;   KBLOCK =    100    inner block; outer block 
   IBRION =      2    ionic relax: 0-MD 1-quasi-New 2-CG
   NFREE  =      1    steps in history (QN), initial steepest desc. (CG)
   ISIF   =      3    stress and relaxation
   IWAVPR =     11    prediction:  0-non 1-charg 2-wave 3-comb
   ISYM   =      1    0-nonsym 1-usesym 2-fastsym
   LCORR  =      T    Harris-Foulkes like correction to forces

   POTIM  = 0.5000    time-step for ionic-motion
   TEIN   =    0.0    initial temperature
   TEBEG  =    0.0;   TEEND  =   0.0 temperature during run
   SMASS  =  -3.00    Nose mass-parameter (am)
   estimated Nose-frequenzy (Omega)   =  0.10E-29 period in steps =****** mass=  -0.558E-27a.u.
   SCALEE = 1.0000    scale energy and forces
   NPACO  =    256;   APACO  = 16.0  distance and # of slots for P.C.
   PSTRESS=    0.0 pullay stress

  Mass of Ions in am
   POMASS =   7.01 16.00 32.07
  Ionic Valenz
   ZVAL   =   3.00  6.00  6.00
  Atomic Wigner-Seitz radii
   RWIGS  =  -1.00 -1.00 -1.00
  virtual crystal weights 
   VCA    =   1.00  1.00  1.00
   NELECT =      72.0000    total number of electrons
   NUPDOWN=      -1.0000    fix difference up-down

 DOS related values:
   EMIN   =  10.00;   EMAX   =-10.00  energy-range for DOS
   EFERMI =   0.00
   ISMEAR =     0;   SIGMA  =   0.20  broadening in eV -4-tet -1-fermi 0-gaus

 Electronic relaxation 2 (details)
   IALGO  =     68    algorithm
   LDIAG  =      T    sub-space diagonalisation (order eigenvalues)
   LSUBROT=      T    optimize rotation matrix (better conditioning)
   TURBO    =      0    0=normal 1=particle mesh
   IRESTART =      0    0=no restart 2=restart with 2 vectors
   NREBOOT  =      0    no. of reboots
   NMIN     =      0    reboot dimension
   EREF     =   0.00    reference energy to select bands
   IMIX   =      4    mixing-type and parameters
     AMIX     =   0.40;   BMIX     =  1.00
     AMIX_MAG =   1.60;   BMIX_MAG =  1.00
     AMIN     =   0.10
     WC   =   100.;   INIMIX=   1;  MIXPRE=   1;  MAXMIX= -45

 Intra band minimization:
   WEIMIN = 0.0010     energy-eigenvalue tresh-hold
   EBREAK =  0.57E-06  absolut break condition
   DEPER  =   0.30     relativ break condition  

   TIME   =   0.40     timestep for ELM

  volume/ion in A,a.u.               =       9.98        67.37
  Fermi-wavevector in a.u.,A,eV,Ry     =   1.312340  2.479964 23.432464  1.722238
  Thomas-Fermi vector in A             =   2.442740
 
 Write flags
   LWAVE  =      F    write WAVECAR
   LCHARG =      T    write CHGCAR
   LVTOT  =      F    write LOCPOT, total local potential
   LVHAR  =      T    write LOCPOT, Hartree potential only
   LELF   =      F    write electronic localiz. function (ELF)
   LORBIT =     11    0 simple, 1 ext, 2 COOP (PROOUT)


 Dipole corrections
   LMONO  =      F    monopole corrections only (constant potential shift)
   LDIPOL =      F    correct potential (dipole corrections)
   IDIPOL =      0    1-x, 2-y, 3-z, 4-all directions 
   EPSILON=  1.0000000 bulk dielectric constant

 Exchange correlation treatment:
   GGA     =    --    GGA type
   LEXCH   =     8    internal setting for exchange type
   VOSKOWN=      0    Vosko Wilk Nusair interpolation
   LHFCALC =     F    Hartree Fock is set to
   LHFONE  =     F    Hartree Fock one center treatment
   AEXX    =    0.0000 exact exchange contribution

 Linear response parameters
   LEPSILON=     F    determine dielectric tensor
   LRPA    =     F    only Hartree local field effects (RPA)
   LNABLA  =     F    use nabla operator in PAW spheres
   LVEL    =     F    velocity operator in full k-point grid
   LINTERFAST=   F  fast interpolation
   KINTER  =     0    interpolate to denser k-point grid
   CSHIFT  =0.1000    complex shift for real part using Kramers Kronig
   OMEGAMAX=  -1.0    maximum frequency
   DEG_THRESHOLD= 0.2000000E-02 threshold for treating states as degnerate
   RTIME   =    0.100 relaxation time in fs

 Orbital magnetization related:
   ORBITALMAG=     F  switch on orbital magnetization
   LCHIMAG   =     F  perturbation theory with respect to B field
   DQ        =  0.001000  dq finite difference perturbation B field



--------------------------------------------------------------------------------------------------------


 conjugate gradient relaxation of ions
 charge density and potential will be updated during run
 non-spin polarized calculation
 RMM-DIIS sequential band-by-band and
  variant of blocked Davidson during initial phase
 perform sub-space diagonalisation
    before iterative eigenvector-optimisation
 modified Broyden-mixing scheme, WC =      100.0
 initial mixing is a Kerker type mixing with AMIX =  0.4000 and BMIX =      1.0000
 Hartree-type preconditioning will be used
 using additional bands            8
 reciprocal scheme for non local part
 use partial core corrections
 calculate Harris-corrections to forces 
   (improved forces if not selfconsistent)
 use gradient corrections 
 use of overlap-Matrix (Vanderbilt PP)
 Gauss-broadening in eV      SIGMA  =   0.20


--------------------------------------------------------------------------------------------------------


  energy-cutoff  :      500.00
  volume of cell :      139.77
      direct lattice vectors                 reciprocal lattice vectors
     2.751733000  4.103389000  0.000000000     0.181703675  0.121850500  0.000000000
    -2.751733000  4.103389000  0.000000000    -0.181703675  0.121850500  0.000000000
     0.000000000  0.000000000  6.189256000     0.000000000  0.000000000  0.161570308

  length of vectors
     4.940631112  4.940631112  6.189256000     0.218777901  0.218777901  0.161570308


 
 k-points in units of 2pi/SCALE and weight: KPOINTS                                 
   0.00000000  0.00000000  0.00000000       0.002
   0.02018930  0.01353894  0.00000000       0.008
   0.04037859  0.02707789  0.00000000       0.008
   0.06056789  0.04061683  0.00000000       0.008
   0.08075719  0.05415578  0.00000000       0.008
   0.00000000  0.02707789  0.00000000       0.004
   0.02018930  0.04061683  0.00000000       0.008
   0.04037859  0.05415578  0.00000000       0.008
   0.06056789  0.06769472  0.00000000       0.008
  -0.10094649 -0.04061683  0.00000000       0.008
  -0.08075719 -0.02707789  0.00000000       0.008
  -0.06056789 -0.01353894  0.00000000       0.008
  -0.04037859  0.00000000  0.00000000       0.004
   0.00000000  0.05415578  0.00000000       0.004
   0.02018930  0.06769472  0.00000000       0.008
   0.04037859  0.08123367  0.00000000       0.008
  -0.12113578 -0.02707789  0.00000000       0.008
  -0.10094649 -0.01353894  0.00000000       0.008
  -0.08075719  0.00000000  0.00000000       0.004
   0.00000000  0.08123367  0.00000000       0.004
   0.02018930  0.09477261  0.00000000       0.008
  -0.14132508 -0.01353894  0.00000000       0.008
  -0.12113578  0.00000000  0.00000000       0.004
   0.00000000  0.10831156  0.00000000       0.004
  -0.16151438  0.00000000  0.00000000       0.004
   0.00000000  0.00000000  0.02692838       0.004
   0.02018930  0.01353894  0.02692838       0.016
   0.04037859  0.02707789  0.02692838       0.016
   0.06056789  0.04061683  0.02692838       0.016
   0.08075719  0.05415578  0.02692838       0.016
   0.00000000  0.02707789  0.02692838       0.008
   0.02018930  0.04061683  0.02692838       0.016
   0.04037859  0.05415578  0.02692838       0.016
   0.06056789  0.06769472  0.02692838       0.016
  -0.10094649 -0.04061683  0.02692838       0.016
  -0.08075719 -0.02707789  0.02692838       0.016
  -0.06056789 -0.01353894  0.02692838       0.016
  -0.04037859  0.00000000  0.02692838       0.008
   0.00000000  0.05415578  0.02692838       0.008
   0.02018930  0.06769472  0.02692838       0.016
   0.04037859  0.08123367  0.02692838       0.016
  -0.12113578 -0.02707789  0.02692838       0.016
  -0.10094649 -0.01353894  0.02692838       0.016
  -0.08075719  0.00000000  0.02692838       0.008
   0.00000000  0.08123367  0.02692838       0.008
   0.02018930  0.09477261  0.02692838       0.016
  -0.14132508 -0.01353894  0.02692838       0.016
  -0.12113578  0.00000000  0.02692838       0.008
   0.00000000  0.10831156  0.02692838       0.008
  -0.16151438  0.00000000  0.02692838       0.008
   0.00000000  0.00000000  0.05385677       0.004
   0.02018930  0.01353894  0.05385677       0.016
   0.04037859  0.02707789  0.05385677       0.016
   0.06056789  0.04061683  0.05385677       0.016
   0.08075719  0.05415578  0.05385677       0.016
   0.00000000  0.02707789  0.05385677       0.008
   0.02018930  0.04061683  0.05385677       0.016
   0.04037859  0.05415578  0.05385677       0.016
   0.06056789  0.06769472  0.05385677       0.016
  -0.10094649 -0.04061683  0.05385677       0.016
  -0.08075719 -0.02707789  0.05385677       0.016
  -0.06056789 -0.01353894  0.05385677       0.016
  -0.04037859  0.00000000  0.05385677       0.008
   0.00000000  0.05415578  0.05385677       0.008
   0.02018930  0.06769472  0.05385677       0.016
   0.04037859  0.08123367  0.05385677       0.016
  -0.12113578 -0.02707789  0.05385677       0.016
  -0.10094649 -0.01353894  0.05385677       0.016
  -0.08075719  0.00000000  0.05385677       0.008
   0.00000000  0.08123367  0.05385677       0.008
   0.02018930  0.09477261  0.05385677       0.016
  -0.14132508 -0.01353894  0.05385677       0.016
  -0.12113578  0.00000000  0.05385677       0.008
   0.00000000  0.10831156  0.05385677       0.008
  -0.16151438  0.00000000  0.05385677       0.008
   0.00000000  0.00000000  0.08078515       0.002
   0.02018930  0.01353894  0.08078515       0.008
   0.04037859  0.02707789  0.08078515       0.008
   0.06056789  0.04061683  0.08078515       0.008
   0.08075719  0.05415578  0.08078515       0.008
   0.00000000  0.02707789  0.08078515       0.004
   0.02018930  0.04061683  0.08078515       0.008
   0.04037859  0.05415578  0.08078515       0.008
   0.06056789  0.06769472  0.08078515       0.008
  -0.10094649 -0.04061683  0.08078515       0.008
  -0.08075719 -0.02707789  0.08078515       0.008
  -0.06056789 -0.01353894  0.08078515       0.008
  -0.04037859  0.00000000  0.08078515       0.004
   0.00000000  0.05415578  0.08078515       0.004
   0.02018930  0.06769472  0.08078515       0.008
   0.04037859  0.08123367  0.08078515       0.008
  -0.12113578 -0.02707789  0.08078515       0.008
  -0.10094649 -0.01353894  0.08078515       0.008
  -0.08075719  0.00000000  0.08078515       0.004
   0.00000000  0.08123367  0.08078515       0.004
   0.02018930  0.09477261  0.08078515       0.008
  -0.14132508 -0.01353894  0.08078515       0.008
  -0.12113578  0.00000000  0.08078515       0.004
   0.00000000  0.10831156  0.08078515       0.004
  -0.16151438  0.00000000  0.08078515       0.004
 
 k-points in reciprocal lattice and weights: KPOINTS                                 
   0.00000000  0.00000000  0.00000000       0.002
   0.11111111  0.00000000  0.00000000       0.008
   0.22222222  0.00000000  0.00000000       0.008
   0.33333333  0.00000000  0.00000000       0.008
   0.44444444  0.00000000  0.00000000       0.008
   0.11111111  0.11111111  0.00000000       0.004
   0.22222222  0.11111111  0.00000000       0.008
   0.33333333  0.11111111  0.00000000       0.008
   0.44444444  0.11111111  0.00000000       0.008
  -0.44444444  0.11111111  0.00000000       0.008
  -0.33333333  0.11111111  0.00000000       0.008
  -0.22222222  0.11111111  0.00000000       0.008
  -0.11111111  0.11111111  0.00000000       0.004
   0.22222222  0.22222222  0.00000000       0.004
   0.33333333  0.22222222  0.00000000       0.008
   0.44444444  0.22222222  0.00000000       0.008
  -0.44444444  0.22222222  0.00000000       0.008
  -0.33333333  0.22222222  0.00000000       0.008
  -0.22222222  0.22222222  0.00000000       0.004
   0.33333333  0.33333333  0.00000000       0.004
   0.44444444  0.33333333  0.00000000       0.008
  -0.44444444  0.33333333  0.00000000       0.008
  -0.33333333  0.33333333  0.00000000       0.004
   0.44444444  0.44444444  0.00000000       0.004
  -0.44444444  0.44444444  0.00000000       0.004
   0.00000000  0.00000000  0.16666667       0.004
   0.11111111  0.00000000  0.16666667       0.016
   0.22222222  0.00000000  0.16666667       0.016
   0.33333333  0.00000000  0.16666667       0.016
   0.44444444  0.00000000  0.16666667       0.016
   0.11111111  0.11111111  0.16666667       0.008
   0.22222222  0.11111111  0.16666667       0.016
   0.33333333  0.11111111  0.16666667       0.016
   0.44444444  0.11111111  0.16666667       0.016
  -0.44444444  0.11111111  0.16666667       0.016
  -0.33333333  0.11111111  0.16666667       0.016
  -0.22222222  0.11111111  0.16666667       0.016
  -0.11111111  0.11111111  0.16666667       0.008
   0.22222222  0.22222222  0.16666667       0.008
   0.33333333  0.22222222  0.16666667       0.016
   0.44444444  0.22222222  0.16666667       0.016
  -0.44444444  0.22222222  0.16666667       0.016
  -0.33333333  0.22222222  0.16666667       0.016
  -0.22222222  0.22222222  0.16666667       0.008
   0.33333333  0.33333333  0.16666667       0.008
   0.44444444  0.33333333  0.16666667       0.016
  -0.44444444  0.33333333  0.16666667       0.016
  -0.33333333  0.33333333  0.16666667       0.008
   0.44444444  0.44444444  0.16666667       0.008
  -0.44444444  0.44444444  0.16666667       0.008
   0.00000000  0.00000000  0.33333333       0.004
   0.11111111  0.00000000  0.33333333       0.016
   0.22222222  0.00000000  0.33333333       0.016
   0.33333333  0.00000000  0.33333333       0.016
   0.44444444  0.00000000  0.33333333       0.016
   0.11111111  0.11111111  0.33333333       0.008
   0.22222222  0.11111111  0.33333333       0.016
   0.33333333  0.11111111  0.33333333       0.016
   0.44444444  0.11111111  0.33333333       0.016
  -0.44444444  0.11111111  0.33333333       0.016
  -0.33333333  0.11111111  0.33333333       0.016
  -0.22222222  0.11111111  0.33333333       0.016
  -0.11111111  0.11111111  0.33333333       0.008
   0.22222222  0.22222222  0.33333333       0.008
   0.33333333  0.22222222  0.33333333       0.016
   0.44444444  0.22222222  0.33333333       0.016
  -0.44444444  0.22222222  0.33333333       0.016
  -0.33333333  0.22222222  0.33333333       0.016
  -0.22222222  0.22222222  0.33333333       0.008
   0.33333333  0.33333333  0.33333333       0.008
   0.44444444  0.33333333  0.33333333       0.016
  -0.44444444  0.33333333  0.33333333       0.016
  -0.33333333  0.33333333  0.33333333       0.008
   0.44444444  0.44444444  0.33333333       0.008
  -0.44444444  0.44444444  0.33333333       0.008
   0.00000000  0.00000000  0.50000000       0.002
   0.11111111  0.00000000  0.50000000       0.008
   0.22222222  0.00000000  0.50000000       0.008
   0.33333333  0.00000000  0.50000000       0.008
   0.44444444  0.00000000  0.50000000       0.008
   0.11111111  0.11111111  0.50000000       0.004
   0.22222222  0.11111111  0.50000000       0.008
   0.33333333  0.11111111  0.50000000       0.008
   0.44444444  0.11111111  0.50000000       0.008
  -0.44444444  0.11111111  0.50000000       0.008
  -0.33333333  0.11111111  0.50000000       0.008
  -0.22222222  0.11111111  0.50000000       0.008
  -0.11111111  0.11111111  0.50000000       0.004
   0.22222222  0.22222222  0.50000000       0.004
   0.33333333  0.22222222  0.50000000       0.008
   0.44444444  0.22222222  0.50000000       0.008
  -0.44444444  0.22222222  0.50000000       0.008
  -0.33333333  0.22222222  0.50000000       0.008
  -0.22222222  0.22222222  0.50000000       0.004
   0.33333333  0.33333333  0.50000000       0.004
   0.44444444  0.33333333  0.50000000       0.008
  -0.44444444  0.33333333  0.50000000       0.008
  -0.33333333  0.33333333  0.50000000       0.004
   0.44444444  0.44444444  0.50000000       0.004
  -0.44444444  0.44444444  0.50000000       0.004
 
 position of ions in fractional coordinates (direct lattice) 
   0.82644484  0.82644484  0.74999974
   0.17355530  0.17355530  0.24999937
   0.50000007  0.50000007  0.50000036
   0.50000007  0.50000007  0.00000000
   0.81832561  0.25603989  0.74999974
   0.25603989  0.81832561  0.74999974
   0.74396025  0.18167454  0.24999937
   0.25086213  0.25086213  0.94498765
   0.74913680  0.74913680  0.44498890
   0.74913680  0.74913680  0.05501146
   0.25086213  0.25086213  0.55501021
   0.18167454  0.74396025  0.24999937
   0.14653496  0.14653496  0.74999974
   0.85346518  0.85346518  0.24999937
 
 position of ions in cartesian coordinates  (Angst):
   0.00000000  6.78244932  4.64194037
   0.00000000  1.42432986  1.54731012
   0.00000000  4.10338959  3.09463024
   0.00000000  4.10338959  0.00000000
   1.54726016  4.40853956  4.64194037
  -1.54726016  4.40853956  4.64194037
   1.54726016  3.79823962  1.54731012
   0.00000000  2.05876979  5.84877046
   0.00000000  6.14799938  2.75415022
   0.00000000  6.14799938  0.34048003
   0.00000000  2.05876979  3.43510027
  -1.54726016  3.79823962  1.54731012
   0.00000000  1.20257988  4.64194037
   0.00000000  7.00419929  1.54731012
 


--------------------------------------------------------------------------------------------------------


 k-point  1 :   0.0000 0.0000 0.0000  plane waves:    3531
 k-point  2 :   0.1111 0.0000 0.0000  plane waves:    3523
 k-point  3 :   0.2222 0.0000 0.0000  plane waves:    3549
 k-point  4 :   0.3333 0.0000 0.0000  plane waves:    3559
 k-point  5 :   0.4444 0.0000 0.0000  plane waves:    3553
 k-point  6 :   0.1111 0.1111 0.0000  plane waves:    3527
 k-point  7 :   0.2222 0.1111 0.0000  plane waves:    3547
 k-point  8 :   0.3333 0.1111 0.0000  plane waves:    3560
 k-point  9 :   0.4444 0.1111 0.0000  plane waves:    3539
 k-point 10 :  -0.4444 0.1111 0.0000  plane waves:    3559
 k-point 11 :  -0.3333 0.1111 0.0000  plane waves:    3558
 k-point 12 :  -0.2222 0.1111 0.0000  plane waves:    3557
 k-point 13 :  -0.1111 0.1111 0.0000  plane waves:    3536
 k-point 14 :   0.2222 0.2222 0.0000  plane waves:    3537
 k-point 15 :   0.3333 0.2222 0.0000  plane waves:    3550
 k-point 16 :   0.4444 0.2222 0.0000  plane waves:    3554
 k-point 17 :  -0.4444 0.2222 0.0000  plane waves:    3551
 k-point 18 :  -0.3333 0.2222 0.0000  plane waves:    3561
 k-point 19 :  -0.2222 0.2222 0.0000  plane waves:    3558
 k-point 20 :   0.3333 0.3333 0.0000  plane waves:    3545
 k-point 21 :   0.4444 0.3333 0.0000  plane waves:    3542
 k-point 22 :  -0.4444 0.3333 0.0000  plane waves:    3554
 k-point 23 :  -0.3333 0.3333 0.0000  plane waves:    3548
 k-point 24 :   0.4444 0.4444 0.0000  plane waves:    3545
 k-point 25 :  -0.4444 0.4444 0.0000  plane waves:    3548
 k-point 26 :   0.0000 0.0000 0.1667  plane waves:    3517
 k-point 27 :   0.1111 0.0000 0.1667  plane waves:    3536
 k-point 28 :   0.2222 0.0000 0.1667  plane waves:    3541
 k-point 29 :   0.3333 0.0000 0.1667  plane waves:    3545
 k-point 30 :   0.4444 0.0000 0.1667  plane waves:    3541
 k-point 31 :   0.1111 0.1111 0.1667  plane waves:    3526
 k-point 32 :   0.2222 0.1111 0.1667  plane waves:    3544
 k-point 33 :   0.3333 0.1111 0.1667  plane waves:    3553
 k-point 34 :   0.4444 0.1111 0.1667  plane waves:    3549
 k-point 35 :  -0.4444 0.1111 0.1667  plane waves:    3561
 k-point 36 :  -0.3333 0.1111 0.1667  plane waves:    3563
 k-point 37 :  -0.2222 0.1111 0.1667  plane waves:    3552
 k-point 38 :  -0.1111 0.1111 0.1667  plane waves:    3546
 k-point 39 :   0.2222 0.2222 0.1667  plane waves:    3545
 k-point 40 :   0.3333 0.2222 0.1667  plane waves:    3548
 k-point 41 :   0.4444 0.2222 0.1667  plane waves:    3558
 k-point 42 :  -0.4444 0.2222 0.1667  plane waves:    3556
 k-point 43 :  -0.3333 0.2222 0.1667  plane waves:    3550
 k-point 44 :  -0.2222 0.2222 0.1667  plane waves:    3558
 k-point 45 :   0.3333 0.3333 0.1667  plane waves:    3534
 k-point 46 :   0.4444 0.3333 0.1667  plane waves:    3551
 k-point 47 :  -0.4444 0.3333 0.1667  plane waves:    3557
 k-point 48 :  -0.3333 0.3333 0.1667  plane waves:    3559
 k-point 49 :   0.4444 0.4444 0.1667  plane waves:    3542
 k-point 50 :  -0.4444 0.4444 0.1667  plane waves:    3548
 k-point 51 :   0.0000 0.0000 0.3333  plane waves:    3506
 k-point 52 :   0.1111 0.0000 0.3333  plane waves:    3519
 k-point 53 :   0.2222 0.0000 0.3333  plane waves:    3537
 k-point 54 :   0.3333 0.0000 0.3333  plane waves:    3538
 k-point 55 :   0.4444 0.0000 0.3333  plane waves:    3554
 k-point 56 :   0.1111 0.1111 0.3333  plane waves:    3533
 k-point 57 :   0.2222 0.1111 0.3333  plane waves:    3544
 k-point 58 :   0.3333 0.1111 0.3333  plane waves:    3545
 k-point 59 :   0.4444 0.1111 0.3333  plane waves:    3554
 k-point 60 :  -0.4444 0.1111 0.3333  plane waves:    3557
 k-point 61 :  -0.3333 0.1111 0.3333  plane waves:    3548
 k-point 62 :  -0.2222 0.1111 0.3333  plane waves:    3538
 k-point 63 :  -0.1111 0.1111 0.3333  plane waves:    3533
 k-point 64 :   0.2222 0.2222 0.3333  plane waves:    3559
 k-point 65 :   0.3333 0.2222 0.3333  plane waves:    3548
 k-point 66 :   0.4444 0.2222 0.3333  plane waves:    3551
 k-point 67 :  -0.4444 0.2222 0.3333  plane waves:    3551
 k-point 68 :  -0.3333 0.2222 0.3333  plane waves:    3555
 k-point 69 :  -0.2222 0.2222 0.3333  plane waves:    3537
 k-point 70 :   0.3333 0.3333 0.3333  plane waves:    3548
 k-point 71 :   0.4444 0.3333 0.3333  plane waves:    3557
 k-point 72 :  -0.4444 0.3333 0.3333  plane waves:    3561
 k-point 73 :  -0.3333 0.3333 0.3333  plane waves:    3561
 k-point 74 :   0.4444 0.4444 0.3333  plane waves:    3560
 k-point 75 :  -0.4444 0.4444 0.3333  plane waves:    3556
 k-point 76 :   0.0000 0.0000 0.5000  plane waves:    3498
 k-point 77 :   0.1111 0.0000 0.5000  plane waves:    3520
 k-point 78 :   0.2222 0.0000 0.5000  plane waves:    3540
 k-point 79 :   0.3333 0.0000 0.5000  plane waves:    3542
 k-point 80 :   0.4444 0.0000 0.5000  plane waves:    3548
 k-point 81 :   0.1111 0.1111 0.5000  plane waves:    3530
 k-point 82 :   0.2222 0.1111 0.5000  plane waves:    3546
 k-point 83 :   0.3333 0.1111 0.5000  plane waves:    3546
 k-point 84 :   0.4444 0.1111 0.5000  plane waves:    3556
 k-point 85 :  -0.4444 0.1111 0.5000  plane waves:    3546
 k-point 86 :  -0.3333 0.1111 0.5000  plane waves:    3544
 k-point 87 :  -0.2222 0.1111 0.5000  plane waves:    3552
 k-point 88 :  -0.1111 0.1111 0.5000  plane waves:    3526
 k-point 89 :   0.2222 0.2222 0.5000  plane waves:    3544
 k-point 90 :   0.3333 0.2222 0.5000  plane waves:    3554
 k-point 91 :   0.4444 0.2222 0.5000  plane waves:    3552
 k-point 92 :  -0.4444 0.2222 0.5000  plane waves:    3558
 k-point 93 :  -0.3333 0.2222 0.5000  plane waves:    3556
 k-point 94 :  -0.2222 0.2222 0.5000  plane waves:    3568
 k-point 95 :   0.3333 0.3333 0.5000  plane waves:    3564
 k-point 96 :   0.4444 0.3333 0.5000  plane waves:    3558
 k-point 97 :  -0.4444 0.3333 0.5000  plane waves:    3552
 k-point 98 :  -0.3333 0.3333 0.5000  plane waves:    3568
 k-point 99 :   0.4444 0.4444 0.5000  plane waves:    3564
 k-point ** :  -0.4444 0.4444 0.5000  plane waves:    3568

 maximum and minimum number of plane-waves per node :       911      858

 maximum number of plane-waves:      3568
 maximum index in each direction: 
   IXMAX=    9   IYMAX=    9   IZMAX=   11
   IXMIN=   -9   IYMIN=   -9   IZMIN=  -11

 WARNING: aliasing errors must be expected set NGX to  38 to avoid them
 WARNING: aliasing errors must be expected set NGY to  38 to avoid them
 NGZ is ok and might be reduce to  46
 aliasing errors are usually negligible using standard VASP settings
 and one can safely disregard these warnings

 parallel 3D FFT for wavefunctions:
    minimum data exchange during FFTs selected (reduces bandwidth)
 parallel 3D FFT for charge:
    minimum data exchange during FFTs selected (reduces bandwidth)


 total amount of memory used by VASP on root node    83757. kBytes
========================================================================

   base      :      30000. kBytes
   nonl-proj :      17365. kBytes
   fftplans  :       1429. kBytes
   grid      :       2356. kBytes
   one-center:         12. kBytes
   wavefun   :      32595. kBytes
 
 Broyden mixing: mesh for mixing (old mesh)
   NGX = 17   NGY = 17   NGZ = 23
  (NGX  = 54   NGY  = 54   NGZ  = 70)
  gives a total of   6647 points

 initial charge density was supplied:
 charge density of overlapping atoms calculated
 number of electron      72.0000000 magnetization 
 keeping initial charge density in first step


--------------------------------------------------------------------------------------------------------


 Maximum index for augmentation-charges          808 (set IRDMAX)


--------------------------------------------------------------------------------------------------------


 First call to EWALD:  gamma=   0.342
 Maximum number of real-space cells 3x 3x 2
 Maximum number of reciprocal cells 3x 3x 3

 FEWALD executed in parallel
    FEWALD:  cpu time    0.00: real time    0.00


----------------------------------------- Iteration    1(   1)  ---------------------------------------


    POTLOK:  cpu time    0.04: real time    0.04
    SETDIJ:  cpu time    0.02: real time    0.04
     EDDAV:  cpu time   14.32: real time   14.32
       DOS:  cpu time    0.01: real time    0.02
    --------------------------------------------
      LOOP:  cpu time   14.39: real time   14.42

 eigenvalue-minimisations  :  8904
 total energy-change (2. order) : 0.6574348E+03  (-0.3920257E+04)
 number of electron      72.0000000 magnetization 
 augmentation part       72.0000000 magnetization 

 Free energy of the ion-electron system (eV)
  ---------------------------------------------------
  alpha Z        PSCENC =       178.28931745
  Ewald energy   TEWEN  =     -3189.13855573
  -1/2 Hartree   DENC   =     -1256.05891922
  -exchange  EXHF       =         0.00000000
  -V(xc)+E(xc)   XCENC  =       297.03209143
  PAW double counting   =      2394.51860000    -2497.93107417
  entropy T*S    EENTRO =        -0.03066428
  eigenvalues    EBANDS =       -92.87272063
  atomic energy  EATOM  =      4823.62671724
  ---------------------------------------------------
  free energy    TOTEN  =       657.43479208 eV

  energy without entropy =      657.46545636  energy(sigma->0) =      657.45012422


--------------------------------------------------------------------------------------------------------




----------------------------------------- Iteration    1(   2)  ---------------------------------------


     EDDAV:  cpu time   16.59: real time   16.60
       DOS:  cpu time    0.01: real time    0.01
    --------------------------------------------
      LOOP:  cpu time   16.60: real time   16.62

 eigenvalue-minimisations  : 10864
 total energy-change (2. order) :-0.7000533E+03  (-0.6786148E+03)
 number of electron      72.0000000 magnetization 
 augmentation part       72.0000000 magnetization 

 Free energy of the ion-electron system (eV)
  ---------------------------------------------------
  alpha Z        PSCENC =       178.28931745
  Ewald energy   TEWEN  =     -3189.13855573
  -1/2 Hartree   DENC   =     -1256.05891922
  -exchange  EXHF       =         0.00000000
  -V(xc)+E(xc)   XCENC  =       297.03209143
  PAW double counting   =      2394.51860000    -2497.93107417
  entropy T*S    EENTRO =         0.00000000
  eigenvalues    EBANDS =      -792.95663671
  atomic energy  EATOM  =      4823.62671724
  ---------------------------------------------------
  free energy    TOTEN  =       -42.61845972 eV

  energy without entropy =      -42.61845972  energy(sigma->0) =      -42.61845972


--------------------------------------------------------------------------------------------------------




----------------------------------------- Iteration    1(   3)  ---------------------------------------


     EDDAV:  cpu time   16.37: real time   16.38
       DOS:  cpu time    0.01: real time    0.01
    --------------------------------------------
      LOOP:  cpu time   16.38: real time   16.39

 eigenvalue-minimisations  : 10480
 total energy-change (2. order) :-0.4889249E+02  (-0.4868187E+02)
 number of electron      72.0000000 magnetization 
 augmentation part       72.0000000 magnetization 

 Free energy of the ion-electron system (eV)
  ---------------------------------------------------
  alpha Z        PSCENC =       178.28931745
  Ewald energy   TEWEN  =     -3189.13855573
  -1/2 Hartree   DENC   =     -1256.05891922
  -exchange  EXHF       =         0.00000000
  -V(xc)+E(xc)   XCENC  =       297.03209143
  PAW double counting   =      2394.51860000    -2497.93107417
  entropy T*S    EENTRO =         0.00000000
  eigenvalues    EBANDS =      -841.84912991
  atomic energy  EATOM  =      4823.62671724
  ---------------------------------------------------
  free energy    TOTEN  =       -91.51095292 eV

  energy without entropy =      -91.51095292  energy(sigma->0) =      -91.51095292


--------------------------------------------------------------------------------------------------------




----------------------------------------- Iteration    1(   4)  ---------------------------------------


     EDDAV:  cpu time   17.82: real time   17.82
       DOS:  cpu time    0.01: real time    0.01
    --------------------------------------------
      LOOP:  cpu time   17.83: real time   17.84

 eigenvalue-minimisations  : 11728
 total energy-change (2. order) :-0.1097218E+01  (-0.1092120E+01)
 number of electron      72.0000000 magnetization 
 augmentation part       72.0000000 magnetization 

 Free energy of the ion-electron system (eV)
  ---------------------------------------------------
  alpha Z        PSCENC =       178.28931745
  Ewald energy   TEWEN  =     -3189.13855573
  -1/2 Hartree   DENC   =     -1256.05891922
  -exchange  EXHF       =         0.00000000
  -V(xc)+E(xc)   XCENC  =       297.03209143
  PAW double counting   =      2394.51860000    -2497.93107417
  entropy T*S    EENTRO =         0.00000000
  eigenvalues    EBANDS =      -842.94634820
  atomic energy  EATOM  =      4823.62671724
  ---------------------------------------------------
  free energy    TOTEN  =       -92.60817120 eV

  energy without entropy =      -92.60817120  energy(sigma->0) =      -92.60817120


--------------------------------------------------------------------------------------------------------




----------------------------------------- Iteration    1(   5)  ---------------------------------------


     EDDAV:  cpu time   17.78: real time   18.07
       DOS:  cpu time    0.01: real time    0.01
    CHARGE:  cpu time    0.83: real time    0.83
    MIXING:  cpu time    0.00: real time    0.00
    --------------------------------------------
      LOOP:  cpu time   18.62: real time   18.92

 eigenvalue-minimisations  : 11152
 total energy-change (2. order) :-0.2765479E-01  (-0.2758999E-01)
 number of electron      72.0000052 magnetization 
 augmentation part       10.0313388 magnetization 

 Broyden mixing:
  rms(total) = 0.20214E+01    rms(broyden)= 0.20197E+01
  rms(prec ) = 0.34934E+01
  weight for this iteration     100.00

 Free energy of the ion-electron system (eV)
  ---------------------------------------------------
  alpha Z        PSCENC =       178.28931745
  Ewald energy   TEWEN  =     -3189.13855573
  -1/2 Hartree   DENC   =     -1256.05891922
  -exchange  EXHF       =         0.00000000
  -V(xc)+E(xc)   XCENC  =       297.03209143
  PAW double counting   =      2394.51860000    -2497.93107417
  entropy T*S    EENTRO =         0.00000000
  eigenvalues    EBANDS =      -842.97400299
  atomic energy  EATOM  =      4823.62671724
  ---------------------------------------------------
  free energy    TOTEN  =       -92.63582600 eV

  energy without entropy =      -92.63582600  energy(sigma->0) =      -92.63582600


--------------------------------------------------------------------------------------------------------




----------------------------------------- Iteration    1(   6)  ---------------------------------------


    POTLOK:  cpu time    0.04: real time    0.04
    SETDIJ:  cpu time    0.01: real time    0.01
    EDDIAG:  cpu time    2.28: real time    2.28
  RMM-DIIS:  cpu time   11.62: real time   11.62
    ORTHCH:  cpu time    0.30: real time    0.30
       DOS:  cpu time    0.01: real time    0.01
    CHARGE:  cpu time    0.82: real time    0.82
    MIXING:  cpu time    0.00: real time    0.00
    --------------------------------------------
      LOOP:  cpu time   15.08: real time   15.09

 eigenvalue-minimisations  :  9427
 total energy-change (2. order) : 0.1013657E+02  (-0.6017079E+01)
 number of electron      72.0000044 magnetization 
 augmentation part        8.9114598 magnetization 

 Broyden mixing:
  rms(total) = 0.56827E+00    rms(broyden)= 0.56733E+00
  rms(prec ) = 0.76761E+00
  weight for this iteration     100.00

 eigenvalues of (default mixing * dielectric matrix)
  average eigenvalue GAMMA=   0.9957
  0.9957

 Free energy of the ion-electron system (eV)
  ---------------------------------------------------
  alpha Z        PSCENC =       178.28931745
  Ewald energy   TEWEN  =     -3189.13855573
  -1/2 Hartree   DENC   =     -1346.16988876
  -exchange  EXHF       =         0.00000000
  -V(xc)+E(xc)   XCENC  =       304.28298826
  PAW double counting   =      2735.80817784    -2840.86765673
  entropy T*S    EENTRO =         0.00000000
  eigenvalues    EBANDS =      -748.33035920
  atomic energy  EATOM  =      4823.62671724
  ---------------------------------------------------
  free energy    TOTEN  =       -82.49925964 eV

  energy without entropy =      -82.49925964  energy(sigma->0) =      -82.49925964


--------------------------------------------------------------------------------------------------------




----------------------------------------- Iteration    1(   7)  ---------------------------------------


    POTLOK:  cpu time    0.32: real time    0.61
    SETDIJ:  cpu time    0.05: real time    0.10
    EDDIAG:  cpu time    2.35: real time    2.36
  RMM-DIIS:  cpu time   14.34: real time   14.35
    ORTHCH:  cpu time    0.31: real time    0.31
       DOS:  cpu time    0.01: real time    0.01
    CHARGE:  cpu time    0.83: real time    0.83
    MIXING:  cpu time    0.00: real time    0.00
    --------------------------------------------
      LOOP:  cpu time   18.21: real time   18.58

 eigenvalue-minimisations  : 11011
 total energy-change (2. order) : 0.9600315E+00  (-0.2803952E+00)
 number of electron      72.0000043 magnetization 
 augmentation part        8.7421627 magnetization 

 Broyden mixing:
  rms(total) = 0.37484E+00    rms(broyden)= 0.37470E+00
  rms(prec ) = 0.48174E+00
  weight for this iteration     100.00

 eigenvalues of (default mixing * dielectric matrix)
  average eigenvalue GAMMA=   1.6880
  1.1510  2.2250

 Free energy of the ion-electron system (eV)
  ---------------------------------------------------
  alpha Z        PSCENC =       178.28931745
  Ewald energy   TEWEN  =     -3189.13855573
  -1/2 Hartree   DENC   =     -1352.71943162
  -exchange  EXHF       =         0.00000000
  -V(xc)+E(xc)   XCENC  =       304.92376017
  PAW double counting   =      2836.50016547    -2941.41007915
  entropy T*S    EENTRO =         0.00000000
  eigenvalues    EBANDS =      -741.61112200
  atomic energy  EATOM  =      4823.62671724
  ---------------------------------------------------
  free energy    TOTEN  =       -81.53922817 eV

  energy without entropy =      -81.53922817  energy(sigma->0) =      -81.53922817


--------------------------------------------------------------------------------------------------------




----------------------------------------- Iteration    1(   8)  ---------------------------------------


    POTLOK:  cpu time    0.04: real time    0.04
    SETDIJ:  cpu time    0.01: real time    0.01
    EDDIAG:  cpu time    2.27: real time    2.27
  RMM-DIIS:  cpu time   12.25: real time   12.25
    ORTHCH:  cpu time    0.31: real time    0.31
       DOS:  cpu time    0.01: real time    0.01
    CHARGE:  cpu time    0.83: real time    0.83
    MIXING:  cpu time    0.00: real time    0.00
    --------------------------------------------
      LOOP:  cpu time   15.71: real time   15.72

 eigenvalue-minimisations  :  9352
 total energy-change (2. order) :-0.1377144E-01  (-0.5579030E-01)
 number of electron      72.0000044 magnetization 
 augmentation part        8.8333693 magnetization 

 Broyden mixing:
  rms(total) = 0.97137E-01    rms(broyden)= 0.97113E-01
  rms(prec ) = 0.16845E+00
  weight for this iteration     100.00

 eigenvalues of (default mixing * dielectric matrix)
  average eigenvalue GAMMA=   1.5396
  2.5239  1.0474  1.0474

 Free energy of the ion-electron system (eV)
  ---------------------------------------------------
  alpha Z        PSCENC =       178.28931745
  Ewald energy   TEWEN  =     -3189.13855573
  -1/2 Hartree   DENC   =     -1350.21390133
  -exchange  EXHF       =         0.00000000
  -V(xc)+E(xc)   XCENC  =       304.75123755
  PAW double counting   =      2915.15644943    -3019.42698239
  entropy T*S    EENTRO =         0.00000000
  eigenvalues    EBANDS =      -744.59728183
  atomic energy  EATOM  =      4823.62671724
  ---------------------------------------------------
  free energy    TOTEN  =       -81.55299961 eV

  energy without entropy =      -81.55299961  energy(sigma->0) =      -81.55299961


--------------------------------------------------------------------------------------------------------




----------------------------------------- Iteration    1(   9)  ---------------------------------------


    POTLOK:  cpu time    0.44: real time    0.47
    SETDIJ:  cpu time    0.01: real time    0.01
    EDDIAG:  cpu time    2.30: real time    2.30
  RMM-DIIS:  cpu time   13.67: real time   13.68
    ORTHCH:  cpu time    0.30: real time    0.30
       DOS:  cpu time    0.01: real time    0.01
    CHARGE:  cpu time    0.83: real time    0.83
    MIXING:  cpu time    0.00: real time    0.00
    --------------------------------------------
      LOOP:  cpu time   17.56: real time   17.61

 eigenvalue-minimisations  : 10893
 total energy-change (2. order) : 0.2725701E-01  (-0.9369058E-02)
 number of electron      72.0000043 magnetization 
 augmentation part        8.7970471 magnetization 

 Broyden mixing:
  rms(total) = 0.22715E-01    rms(broyden)= 0.22698E-01
  rms(prec ) = 0.34881E-01
  weight for this iteration     100.00

 eigenvalues of (default mixing * dielectric matrix)
  average eigenvalue GAMMA=   1.6505
  2.2432  2.2432  1.0578  1.0578

 Free energy of the ion-electron system (eV)
  ---------------------------------------------------
  alpha Z        PSCENC =       178.28931745
  Ewald energy   TEWEN  =     -3189.13855573
  -1/2 Hartree   DENC   =     -1356.23489169
  -exchange  EXHF       =         0.00000000
  -V(xc)+E(xc)   XCENC  =       305.24324548
  PAW double counting   =      2947.44648268    -3051.73813938
  entropy T*S    EENTRO =         0.00000000
  eigenvalues    EBANDS =      -739.01991865
  atomic energy  EATOM  =      4823.62671724
  ---------------------------------------------------
  free energy    TOTEN  =       -81.52574260 eV

  energy without entropy =      -81.52574260  energy(sigma->0) =      -81.52574260


--------------------------------------------------------------------------------------------------------




----------------------------------------- Iteration    1(  10)  ---------------------------------------


    POTLOK:  cpu time    0.04: real time    0.04
    SETDIJ:  cpu time    0.01: real time    0.01
    EDDIAG:  cpu time    2.27: real time    2.27
  RMM-DIIS:  cpu time   12.80: real time   12.81
    ORTHCH:  cpu time    0.30: real time    0.30
       DOS:  cpu time    0.01: real time    0.01
    CHARGE:  cpu time    0.83: real time    0.83
    MIXING:  cpu time    0.00: real time    0.00
    --------------------------------------------
      LOOP:  cpu time   16.25: real time   16.27

 eigenvalue-minimisations  : 10069
 total energy-change (2. order) :-0.4366703E-02  (-0.5259138E-02)
 number of electron      72.0000043 magnetization 
 augmentation part        8.7663523 magnetization 

 Broyden mixing:
  rms(total) = 0.32794E-01    rms(broyden)= 0.32772E-01
  rms(prec ) = 0.53156E-01
  weight for this iteration     100.00

 eigenvalues of (default mixing * dielectric matrix)
  average eigenvalue GAMMA=   1.6723
  2.6285  2.6285  1.0848  1.0848  0.9350

 Free energy of the ion-electron system (eV)
  ---------------------------------------------------
  alpha Z        PSCENC =       178.28931745
  Ewald energy   TEWEN  =     -3189.13855573
  -1/2 Hartree   DENC   =     -1358.36729620
  -exchange  EXHF       =         0.00000000
  -V(xc)+E(xc)   XCENC  =       305.40139098
  PAW double counting   =      2945.80016474    -3050.17170780
  entropy T*S    EENTRO =         0.00000000
  eigenvalues    EBANDS =      -736.97013997
  atomic energy  EATOM  =      4823.62671724
  ---------------------------------------------------
  free energy    TOTEN  =       -81.53010931 eV

  energy without entropy =      -81.53010931  energy(sigma->0) =      -81.53010931


--------------------------------------------------------------------------------------------------------




----------------------------------------- Iteration    1(  11)  ---------------------------------------


    POTLOK:  cpu time    0.04: real time    0.04
    SETDIJ:  cpu time    0.01: real time    0.01
    EDDIAG:  cpu time    2.27: real time    2.27
  RMM-DIIS:  cpu time   13.45: real time   13.46
    ORTHCH:  cpu time    0.30: real time    0.30
       DOS:  cpu time    0.01: real time    0.01
    CHARGE:  cpu time    0.83: real time    0.83
    MIXING:  cpu time    0.00: real time    0.00
    --------------------------------------------
      LOOP:  cpu time   16.92: real time   16.92

 eigenvalue-minimisations  : 10243
 total energy-change (2. order) : 0.3192136E-02  (-0.1240936E-02)
 number of electron      72.0000043 magnetization 
 augmentation part        8.7817816 magnetization 

 Broyden mixing:
  rms(total) = 0.16397E-02    rms(broyden)= 0.16170E-02
  rms(prec ) = 0.24185E-02
  weight for this iteration     100.00

 eigenvalues of (default mixing * dielectric matrix)
  average eigenvalue GAMMA=   1.5823
  2.7758  2.4426  1.2268  1.0857  1.0857  0.8770

 Free energy of the ion-electron system (eV)
  ---------------------------------------------------
  alpha Z        PSCENC =       178.28931745
  Ewald energy   TEWEN  =     -3189.13855573
  -1/2 Hartree   DENC   =     -1357.09969755
  -exchange  EXHF       =         0.00000000
  -V(xc)+E(xc)   XCENC  =       305.29444597
  PAW double counting   =      2941.26603478    -3045.60111652
  entropy T*S    EENTRO =         0.00000000
  eigenvalues    EBANDS =      -738.16406281
  atomic energy  EATOM  =      4823.62671724
  ---------------------------------------------------
  free energy    TOTEN  =       -81.52691717 eV

  energy without entropy =      -81.52691717  energy(sigma->0) =      -81.52691717


--------------------------------------------------------------------------------------------------------




----------------------------------------- Iteration    1(  12)  ---------------------------------------


    POTLOK:  cpu time    0.04: real time    0.04
    SETDIJ:  cpu time    0.01: real time    0.01
    EDDIAG:  cpu time    2.27: real time    2.27
  RMM-DIIS:  cpu time   12.41: real time   12.41
    ORTHCH:  cpu time    0.30: real time    0.30
       DOS:  cpu time    0.01: real time    0.01
    CHARGE:  cpu time    0.83: real time    0.83
    MIXING:  cpu time    0.00: real time    0.00
    --------------------------------------------
      LOOP:  cpu time   15.86: real time   15.87

 eigenvalue-minimisations  :  9438
 total energy-change (2. order) : 0.1918303E-04  (-0.1060530E-03)
 number of electron      72.0000043 magnetization 
 augmentation part        8.7853762 magnetization 

 Broyden mixing:
  rms(total) = 0.41343E-02    rms(broyden)= 0.41307E-02
  rms(prec ) = 0.68838E-02
  weight for this iteration     100.00

 eigenvalues of (default mixing * dielectric matrix)
  average eigenvalue GAMMA=   1.6276
  2.9083  2.4148  2.0471  0.9628  0.9628  1.0487  1.0487

 Free energy of the ion-electron system (eV)
  ---------------------------------------------------
  alpha Z        PSCENC =       178.28931745
  Ewald energy   TEWEN  =     -3189.13855573
  -1/2 Hartree   DENC   =     -1356.95567668
  -exchange  EXHF       =         0.00000000
  -V(xc)+E(xc)   XCENC  =       305.28385142
  PAW double counting   =      2941.20720021    -3045.53003760
  entropy T*S    EENTRO =         0.00000000
  eigenvalues    EBANDS =      -738.30971429
  atomic energy  EATOM  =      4823.62671724
  ---------------------------------------------------
  free energy    TOTEN  =       -81.52689799 eV

  energy without entropy =      -81.52689799  energy(sigma->0) =      -81.52689799


--------------------------------------------------------------------------------------------------------




----------------------------------------- Iteration    1(  13)  ---------------------------------------


    POTLOK:  cpu time    0.68: real time    0.69
    SETDIJ:  cpu time    0.14: real time    0.15
    EDDIAG:  cpu time    3.28: real time    3.28
  RMM-DIIS:  cpu time    6.90: real time    6.90
    ORTHCH:  cpu time    0.30: real time    0.30
       DOS:  cpu time    0.01: real time    0.01
    --------------------------------------------
      LOOP:  cpu time   11.33: real time   11.33

 eigenvalue-minimisations  :  5201
 total energy-change (2. order) : 0.6056587E-04  (-0.9850773E-05)
 number of electron      72.0000043 magnetization 
 augmentation part        8.7853762 magnetization 

 Free energy of the ion-electron system (eV)
  ---------------------------------------------------
  alpha Z        PSCENC =       178.28931745
  Ewald energy   TEWEN  =     -3189.13855573
  -1/2 Hartree   DENC   =     -1357.08922318
  -exchange  EXHF       =         0.00000000
  -V(xc)+E(xc)   XCENC  =       305.29518017
  PAW double counting   =      2941.50410431    -3045.82985615
  entropy T*S    EENTRO =         0.00000000
  eigenvalues    EBANDS =      -738.18452152
  atomic energy  EATOM  =      4823.62671724
  ---------------------------------------------------
  free energy    TOTEN  =       -81.52683742 eV

  energy without entropy =      -81.52683742  energy(sigma->0) =      -81.52683742


--------------------------------------------------------------------------------------------------------




 average (electrostatic) potential at core
  the test charge radii are     0.8577  0.7215  0.9698
  (the norm of the test charge is              1.0000)
       1 -16.4034       2 -16.4035       3 -16.1168       4 -16.1169       5 -72.8243
       6 -72.8243       7 -72.8242       8 -72.7781       9 -72.7779      10 -72.7781
      11 -72.7780      12 -72.8242      13 -93.2393      14 -93.2388
 
 
 
 E-fermi :   2.2920     XC(G=0):  -9.8707     alpha+bet :-11.0497


 k-point   1 :       0.0000    0.0000    0.0000
  band No.  band energies     occupation 
      1     -41.9373      2.00000
      2     -41.9368      2.00000
      3     -41.6700      2.00000
      4     -41.6639      2.00000
      5     -21.7673      2.00000
      6     -21.5638      2.00000
      7     -17.5933      2.00000
      8     -17.4564      2.00000
      9     -17.4550      2.00000
     10     -17.3197      2.00000
     11     -17.3122      2.00000
     12     -17.2102      2.00000
     13      -7.8183      2.00000
     14      -7.2322      2.00000
     15      -5.3076      2.00000
     16      -5.1207      2.00000
     17      -4.7481      2.00000
     18      -4.7338      2.00000
     19      -4.7230      2.00000
     20      -4.5504      2.00000
     21      -2.3409      2.00000
     22      -2.2377      2.00000
     23      -1.9632      2.00000
     24      -1.7631      2.00000
     25      -1.3603      2.00000
     26      -1.2979      2.00000
     27      -1.0171      2.00000
     28      -0.6651      2.00000
     29      -0.6100      2.00000
     30      -0.3853      2.00000
     31       0.2037      2.00000
     32       0.4721      2.00000
     33       0.7960      2.00000
     34       0.8230      2.00000
     35       0.8991      2.00000
     36       1.0079      2.00000
     37       7.4075      0.00000
     38       9.0578      0.00000
     39       9.2862      0.00000
     40       9.8023      0.00000
     41      10.1849      0.00000
     42      10.5389      0.00000
     43      10.6637      0.00000
     44      11.0729      0.00000

 k-point   2 :       0.1111    0.0000    0.0000
  band No.  band energies     occupation 
      1     -41.9373      2.00000
      2     -41.9368      2.00000
      3     -41.6700      2.00000
      4     -41.6639      2.00000
      5     -21.7595      2.00000
      6     -21.5654      2.00000
      7     -17.5852      2.00000
      8     -17.4646      2.00000
      9     -17.4625      2.00000
     10     -17.3277      2.00000
     11     -17.3141      2.00000
     12     -17.2159      2.00000
     13      -7.7737      2.00000
     14      -7.2096      2.00000
     15      -5.2747      2.00000
     16      -5.0898      2.00000
     17      -4.8189      2.00000
     18      -4.7683      2.00000
     19      -4.6307      2.00000
     20      -4.5606      2.00000
     21      -2.3488      2.00000
     22      -2.2327      2.00000
     23      -1.9099      2.00000
     24      -1.7944      2.00000
     25      -1.3493      2.00000
     26      -1.2906      2.00000
     27      -1.0710      2.00000
     28      -0.6677      2.00000
     29      -0.6585      2.00000
     30      -0.4435      2.00000
     31       0.2294      2.00000
     32       0.4812      2.00000
     33       0.7599      2.00000
     34       0.7644      2.00000
     35       0.9218      2.00000
     36       0.9634      2.00000
     37       7.5402      0.00000
     38       9.1398      0.00000
     39       9.3690      0.00000
     40       9.8071      0.00000
     41      10.0760      0.00000
     42      10.3931      0.00000
     43      10.5339      0.00000
     44      11.1813      0.00000

 k-point   3 :       0.2222    0.0000    0.0000
  band No.  band energies     occupation 
      1     -41.9373      2.00000
      2     -41.9368      2.00000
      3     -41.6701      2.00000
      4     -41.6640      2.00000
      5     -21.7384      2.00000
      6     -21.5712      2.00000
      7     -17.5618      2.00000
      8     -17.4912      2.00000
      9     -17.4780      2.00000
     10     -17.3513      2.00000
     11     -17.3162      2.00000
     12     -17.2316      2.00000
     13      -7.6539      2.00000
     14      -7.1594      2.00000
     15      -5.1796      2.00000
     16      -5.0117      2.00000
     17      -4.8785      2.00000
     18      -4.8161      2.00000
     19      -4.5886      2.00000
     20      -4.5555      2.00000
     21      -2.3327      2.00000
     22      -2.2258      2.00000
     23      -1.8294      2.00000
     24      -1.8128      2.00000
     25      -1.4825      2.00000
     26      -1.2027      2.00000
     27      -1.1510      2.00000
     28      -0.8569      2.00000
     29      -0.6813      2.00000
     30      -0.5185      2.00000
     31       0.2934      2.00000
     32       0.4882      2.00000
     33       0.6195      2.00000
     34       0.7265      2.00000
     35       0.8572      2.00000
     36       0.9444      2.00000
     37       7.8814      0.00000
     38       9.1927      0.00000
     39       9.5828      0.00000
     40       9.7543      0.00000
     41      10.0144      0.00000
     42      10.1575      0.00000
     43      10.4615      0.00000
     44      11.4199      0.00000

 k-point   4 :       0.3333    0.0000    0.0000
  band No.  band energies     occupation 
      1     -41.9372      2.00000
      2     -41.9369      2.00000
      3     -41.6701      2.00000
      4     -41.6640      2.00000
      5     -21.7103      2.00000
      6     -21.5817      2.00000
      7     -17.5261      2.00000
      8     -17.5229      2.00000
      9     -17.4948      2.00000
     10     -17.3869      2.00000
     11     -17.3153      2.00000
     12     -17.2512      2.00000
     13      -7.5005      2.00000
     14      -7.1189      2.00000
     15      -5.0446      2.00000
     16      -4.9594      2.00000
     17      -4.8661      2.00000
     18      -4.8570      2.00000
     19      -4.6226      2.00000
     20      -4.5318      2.00000
     21      -2.2522      2.00000
     22      -2.2287      2.00000
     23      -1.8265      2.00000
     24      -1.7829      2.00000
     25      -1.5962      2.00000
     26      -1.4177      2.00000
     27      -1.0926      2.00000
     28      -1.0131      2.00000
     29      -0.7156      2.00000
     30      -0.5565      2.00000
     31       0.3432      2.00000
     32       0.4595      2.00000
     33       0.4837      2.00000
     34       0.7471      2.00000
     35       0.7541      2.00000
     36       0.9495      2.00000
     37       8.2716      0.00000
     38       9.0538      0.00000
     39       9.6404      0.00000
     40       9.8427      0.00000
     41       9.9120      0.00000
     42      10.2406      0.00000
     43      10.6183      0.00000
     44      11.0524      0.00000

 k-point   5 :       0.4444    0.0000    0.0000
  band No.  band energies     occupation 
      1     -41.9372      2.00000
      2     -41.9369      2.00000
      3     -41.6701      2.00000
      4     -41.6640      2.00000
      5     -21.6874      2.00000
      6     -21.5930      2.00000
      7     -17.5435      2.00000
      8     -17.5059      2.00000
      9     -17.4842      2.00000
     10     -17.4286      2.00000
     11     -17.3129      2.00000
     12     -17.2655      2.00000
     13      -7.3820      2.00000
     14      -7.1103      2.00000
     15      -4.9615      2.00000
     16      -4.9370      2.00000
[...]
     21      -2.2834      2.00000
     22      -2.2834      2.00000
     23      -2.1410      2.00000
     24      -2.1409      2.00000
     25      -1.9054      2.00000
     26      -1.9053      2.00000
     27      -0.9349      2.00000
     28      -0.9349      2.00000
     29      -0.7655      2.00000
     30      -0.7654      2.00000
     31       0.5608      2.00000
     32       0.5608      2.00000
     33       0.6151      2.00000
     34       0.6151      2.00000
     35       0.8382      2.00000
     36       0.8383      2.00000
     37       8.7493      0.00000
     38       8.7494      0.00000
     39       9.6533      0.00000
     40       9.6534      0.00000
     41       9.7835      0.00000
     42       9.7836      0.00000
     43      10.1142      0.00000
     44      10.1143      0.00000

 k-point  96 :       0.4444    0.3333    0.5000
  band No.  band energies     occupation 
      1     -42.0995      2.00000
      2     -42.0993      2.00000
      3     -41.8719      2.00000
      4     -41.8719      2.00000
      5     -21.7210      2.00000
      6     -21.7207      2.00000
      7     -17.6873      2.00000
      8     -17.6871      2.00000
      9     -17.5138      2.00000
     10     -17.5136      2.00000
     11     -17.3652      2.00000
     12     -17.3650      2.00000
     13      -7.3429      2.00000
     14      -7.3429      2.00000
     15      -5.1538      2.00000
     16      -5.1537      2.00000
     17      -4.8041      2.00000
     18      -4.8040      2.00000
     19      -4.5996      2.00000
     20      -4.5995      2.00000
     21      -2.3538      2.00000
     22      -2.3538      2.00000
     23      -2.2007      2.00000
     24      -2.2007      2.00000
     25      -1.9084      2.00000
     26      -1.9083      2.00000
     27      -0.9471      2.00000
     28      -0.9471      2.00000
     29      -0.7723      2.00000
     30      -0.7723      2.00000
     31       0.5527      2.00000
     32       0.5527      2.00000
     33       0.6026      2.00000
     34       0.6027      2.00000
     35       0.8562      2.00000
     36       0.8562      2.00000
     37       8.9755      0.00000
     38       8.9756      0.00000
     39       9.5225      0.00000
     40       9.5226      0.00000
     41       9.7781      0.00000
     42       9.7782      0.00000
     43      10.2402      0.00000
     44      10.2403      0.00000

 k-point  97 :      -0.4444    0.3333    0.5000
  band No.  band energies     occupation 
      1     -42.0995      2.00000
      2     -42.0993      2.00000
      3     -41.8719      2.00000
      4     -41.8719      2.00000
      5     -21.7190      2.00000
      6     -21.7186      2.00000
      7     -17.6819      2.00000
      8     -17.6817      2.00000
      9     -17.5332      2.00000
     10     -17.5330      2.00000
     11     -17.3591      2.00000
     12     -17.3589      2.00000
     13      -7.3015      2.00000
     14      -7.3015      2.00000
     15      -5.0757      2.00000
     16      -5.0756      2.00000
     17      -4.8500      2.00000
     18      -4.8499      2.00000
     19      -4.6277      2.00000
     20      -4.6276      2.00000
     21      -2.3497      2.00000
     22      -2.3497      2.00000
     23      -2.1831      2.00000
     24      -2.1830      2.00000
     25      -1.9056      2.00000
     26      -1.9056      2.00000
     27      -1.0025      2.00000
     28      -1.0025      2.00000
     29      -0.7736      2.00000
     30      -0.7736      2.00000
     31       0.4650      2.00000
     32       0.4650      2.00000
     33       0.6030      2.00000
     34       0.6030      2.00000
     35       0.8269      2.00000
     36       0.8269      2.00000
     37       9.2641      0.00000
     38       9.2642      0.00000
     39       9.4279      0.00000
     40       9.4279      0.00000
     41       9.8328      0.00000
     42       9.8329      0.00000
     43      10.4171      0.00000
     44      10.4173      0.00000

 k-point  98 :      -0.3333    0.3333    0.5000
  band No.  band energies     occupation 
      1     -42.0995      2.00000
      2     -42.0994      2.00000
      3     -41.8720      2.00000
      4     -41.8719      2.00000
      5     -21.7213      2.00000
      6     -21.7210      2.00000
      7     -17.6600      2.00000
      8     -17.6598      2.00000
      9     -17.5542      2.00000
     10     -17.5540      2.00000
     11     -17.3546      2.00000
     12     -17.3545      2.00000
     13      -7.2890      2.00000
     14      -7.2890      2.00000
     15      -4.9734      2.00000
     16      -4.9733      2.00000
     17      -4.9056      2.00000
     18      -4.9055      2.00000
     19      -4.7342      2.00000
     20      -4.7341      2.00000
     21      -2.3079      2.00000
     22      -2.3079      2.00000
     23      -2.0522      2.00000
     24      -2.0522      2.00000
     25      -1.9049      2.00000
     26      -1.9049      2.00000
     27      -1.0822      2.00000
     28      -1.0822      2.00000
     29      -0.7724      2.00000
     30      -0.7724      2.00000
     31       0.3990      2.00000
     32       0.3990      2.00000
     33       0.5617      2.00000
     34       0.5617      2.00000
     35       0.7628      2.00000
     36       0.7628      2.00000
     37       9.2398      0.00000
     38       9.2398      0.00000
     39       9.6266      0.00000
     40       9.6267      0.00000
     41       9.9717      0.00000
     42       9.9718      0.00000
     43      10.5167      0.00000
     44      10.5168      0.00000

 k-point  99 :       0.4444    0.4444    0.5000
  band No.  band energies     occupation 
      1     -42.0995      2.00000
      2     -42.0993      2.00000
      3     -41.8720      2.00000
      4     -41.8719      2.00000
      5     -21.7172      2.00000
      6     -21.7169      2.00000
      7     -17.7033      2.00000
      8     -17.7032      2.00000
      9     -17.5041      2.00000
     10     -17.5038      2.00000
     11     -17.3704      2.00000
     12     -17.3703      2.00000
     13      -7.3241      2.00000
     14      -7.3241      2.00000
     15      -5.1636      2.00000
     16      -5.1635      2.00000
     17      -4.7891      2.00000
     18      -4.7890      2.00000
     19      -4.5350      2.00000
     20      -4.5348      2.00000
     21      -2.4117      2.00000
     22      -2.4117      2.00000
     23      -2.2824      2.00000
     24      -2.2823      2.00000
     25      -1.9227      2.00000
     26      -1.9227      2.00000
     27      -0.9248      2.00000
     28      -0.9247      2.00000
     29      -0.7700      2.00000
     30      -0.7699      2.00000
     31       0.5740      2.00000
     32       0.5740      2.00000
     33       0.6368      2.00000
     34       0.6368      2.00000
     35       0.8925      2.00000
     36       0.8926      2.00000
     37       9.0146      0.00000
     38       9.0147      0.00000
     39       9.5172      0.00000
     40       9.5173      0.00000
     41       9.6901      0.00000
     42       9.6902      0.00000
     43      10.2216      0.00000
     44      10.2218      0.00000

 k-point 100 :      -0.4444    0.4444    0.5000
  band No.  band energies     occupation 
      1     -42.0995      2.00000
      2     -42.0993      2.00000
      3     -41.8720      2.00000
      4     -41.8719      2.00000
      5     -21.7164      2.00000
      6     -21.7161      2.00000
      7     -17.7013      2.00000
      8     -17.7012      2.00000
      9     -17.5130      2.00000
     10     -17.5127      2.00000
     11     -17.3668      2.00000
     12     -17.3666      2.00000
     13      -7.3078      2.00000
     14      -7.3078      2.00000
     15      -5.1367      2.00000
     16      -5.1367      2.00000
     17      -4.8050      2.00000
     18      -4.8049      2.00000
     19      -4.5453      2.00000
     20      -4.5452      2.00000
     21      -2.4014      2.00000
     22      -2.4014      2.00000
     23      -2.2833      2.00000
     24      -2.2832      2.00000
     25      -1.9227      2.00000
     26      -1.9226      2.00000
     27      -0.9452      2.00000
     28      -0.9451      2.00000
     29      -0.7701      2.00000
     30      -0.7700      2.00000
     31       0.5331      2.00000
     32       0.5331      2.00000
     33       0.6418      2.00000
     34       0.6419      2.00000
     35       0.8806      2.00000
     36       0.8807      2.00000
     37       9.1532      0.00000
     38       9.1533      0.00000
     39       9.4477      0.00000
     40       9.4478      0.00000
     41       9.7067      0.00000
     42       9.7068      0.00000
     43      10.3076      0.00000
     44      10.3077      0.00000


--------------------------------------------------------------------------------------------------------


 soft charge-density along one line, spin component           1
         0         1         2         3         4         5         6         7         8         9
 total charge-density along one line
 
 pseudopotential strength for first ion, spin component:           1
-49.926   9.692   0.003   0.000   0.000   0.005   0.000   0.000
  9.692  -0.641  -0.003   0.000   0.000  -0.002   0.000   0.000
  0.003  -0.003  -0.476   0.000   0.000   0.226   0.000   0.000
  0.000   0.000   0.000  -0.479   0.000   0.000   0.227   0.000
  0.000   0.000   0.000   0.000  -0.471   0.000   0.000   0.228
  0.005  -0.002   0.226   0.000   0.000   1.923   0.000   0.000
  0.000   0.000   0.000   0.227   0.000   0.000   1.925   0.000
  0.000   0.000   0.000   0.000   0.228   0.000   0.000   1.925
 total augmentation occupancy for first ion, spin component:           1
  2.010   0.081   0.003   0.000   0.000  -0.003   0.000   0.000
  0.081   0.616   0.037   0.000   0.000  -0.006   0.000   0.000
  0.003   0.037   0.065   0.000   0.000  -0.011   0.000   0.000
  0.000   0.000   0.000   0.104   0.000   0.000  -0.018   0.000
  0.000   0.000   0.000   0.000   0.043   0.000   0.000  -0.006
 -0.003  -0.006  -0.011   0.000   0.000   0.002   0.000   0.000
  0.000   0.000   0.000  -0.018   0.000   0.000   0.003   0.000
  0.000   0.000   0.000   0.000  -0.006   0.000   0.000   0.001


------------------------ aborting loop because EDIFF is reached ----------------------------------------


 


 total charge     
 
# of ion     s       p       d       tot
----------------------------------------
  1        2.063   0.168   0.000   2.231
  2        2.063   0.168   0.000   2.231
  3        2.051   0.138   0.000   2.188
  4        2.051   0.138   0.000   2.188
  5        1.581   3.569   0.000   5.150
  6        1.575   3.582   0.000   5.156
  7        1.575   3.582   0.000   5.156
  8        1.580   3.600   0.000   5.180
  9        1.580   3.601   0.000   5.180
 10        1.580   3.600   0.000   5.180
 11        1.580   3.601   0.000   5.180
 12        1.581   3.569   0.000   5.150
 13        1.227   2.264   0.000   3.492
 14        1.227   2.264   0.000   3.492
------------------------------------------------
tot       23.312  33.843   0.000  57.154
 
    CHARGE:  cpu time    0.83: real time    0.83
    FORLOC:  cpu time    0.01: real time    0.01
    FORNL :  cpu time    4.56: real time    4.56
    STRESS:  cpu time    5.33: real time    5.34
    FORCOR:  cpu time    0.04: real time    0.04
    FORHAR:  cpu time    0.02: real time    0.02
    MIXING:  cpu time    0.00: real time    0.00
    FORVDW:  cpu time    0.00: real time    0.00

  FORCE on cell =-STRESS in cart. coord.  units (eV):
  Direction    XX          YY          ZZ          XY          YZ          ZX
  --------------------------------------------------------------------------------------
  Alpha Z   175.28373   175.28373   175.28373
  Ewald   -1168.07217  -977.67136 -1012.02491     0.00000     0.00354     0.00000
  Hartree   416.98044   482.82022   477.91703     0.00000     0.00000     0.00000
  E(xc)    -337.80267  -337.48561  -337.56213     0.00000     0.00000     0.00000
  Local    -281.00648  -521.00920  -489.05633     0.00000    -0.00134     0.00000
  n-local  -144.80273  -141.67921  -141.47790     0.14133     0.01500    -0.00201
  augment     1.18596     0.37782     0.92722     0.00000     0.00000     0.00000
  Kinetic  1338.36593  1319.38182  1325.99832     0.35351    -0.10092     0.03763
  Fock        0.00000     0.00000     0.00000     0.00000     0.00000     0.00000
  -------------------------------------------------------------------------------------
  Total       0.13201     0.01822     0.00503     0.00000     0.00000     0.00000
  in kB       1.48767     0.20536     0.05663     0.00000     0.00000     0.00000
  external pressure =        0.58 kB  Pullay stress =        0.00 kB


 VOLUME and BASIS-vectors are now :
 -----------------------------------------------------------------------------
  energy-cutoff  :      500.00
  volume of cell :      142.17
      direct lattice vectors                 reciprocal lattice vectors
     2.770938375  4.131238814  0.000000000     0.180444287  0.121029072  0.000000000
    -2.770938375  4.131238814  0.000000000    -0.180444287  0.121029072  0.000000000
     0.000000000  0.000000000  6.209604930     0.000000000  0.000000000  0.161040841

  length of vectors
     4.974458123  4.974458123  6.209604930     0.217274428  0.217274428  0.161040841


 FORCES acting on ions
    electron-ion (+dipol)            ewald-force                    non-local-force                 convergence-correction
 -----------------------------------------------------------------------------------------------
   0.895E-12 0.271E+02 -.128E-04   -.184E-14 -.260E+02 0.191E-03   0.000E+00 -.102E+01 0.217E-18   0.202E-12 -.542E-04 0.285E-07
   -.106E-11 -.271E+02 -.406E-04   0.969E-14 0.260E+02 -.170E-03   0.000E+00 0.102E+01 -.651E-18   -.131E-12 0.542E-04 0.226E-08
   -.422E-12 -.199E-04 -.276E-03   0.131E-14 -.643E-03 -.162E-03   0.000E+00 0.678E-20 0.000E+00   0.130E-12 0.568E-07 -.215E-07
   0.396E-12 0.428E-05 0.589E-04   0.166E-13 -.687E-03 -.246E-03   0.000E+00 -.339E-20 0.000E+00   -.252E-13 0.330E-07 -.301E-07
   0.160E+03 0.961E+02 0.283E-03   -.193E+03 -.120E+03 -.115E-03   0.337E+02 0.241E+02 0.759E-18   -.923E-02 -.630E-02 0.117E-06
   -.160E+03 0.961E+02 0.283E-03   0.193E+03 -.120E+03 -.115E-03   -.337E+02 0.241E+02 0.759E-18   0.923E-02 -.630E-02 0.117E-06
   0.160E+03 -.961E+02 0.406E-02   -.193E+03 0.120E+03 0.372E-03   0.337E+02 -.241E+02 -.759E-18   -.923E-02 0.630E-02 -.123E-06
   0.327E-12 -.110E+03 -.136E+03   -.104E-13 0.136E+03 0.170E+03   0.000E+00 -.257E+02 -.341E+02   -.497E-12 0.460E-02 0.799E-02
   0.654E-12 0.110E+03 -.136E+03   -.116E-13 -.136E+03 0.170E+03   0.000E+00 0.257E+02 -.341E+02   0.146E-12 -.460E-02 0.799E-02
   0.260E-11 0.110E+03 0.136E+03   -.868E-14 -.136E+03 -.170E+03   0.000E+00 0.257E+02 0.341E+02   0.433E-12 -.460E-02 -.799E-02
   0.122E-11 -.110E+03 0.136E+03   -.477E-14 0.136E+03 -.170E+03   0.000E+00 -.257E+02 0.341E+02   -.268E-12 0.460E-02 -.799E-02
   -.160E+03 -.961E+02 0.406E-02   0.193E+03 0.120E+03 0.372E-03   -.337E+02 -.241E+02 -.651E-18   0.923E-02 0.630E-02 -.123E-06
   -.136E-11 -.559E+01 -.619E-04   0.794E-14 0.703E+01 -.193E-02   0.000E+00 -.141E+01 -.434E-18   -.243E-12 -.111E-02 0.310E-06
   -.620E-12 0.559E+01 0.281E-03   0.517E-15 -.703E+01 0.197E-02   0.000E+00 0.141E+01 0.130E-17   0.979E-13 0.111E-02 -.718E-07
 -----------------------------------------------------------------------------------------------
   0.728E-11 0.200E-01 0.160E-01   0.369E-13 -.462E-13 0.462E-13   0.000E+00 -.355E-14 -.711E-14   -.528E-12 0.515E-06 0.321E-07
 
 
 POSITION                                       TOTAL-FORCE (eV/Angst)
 -----------------------------------------------------------------------------------
      0.00000      6.83033      4.65720         0.000000      0.029957      0.000000
      0.00000      1.43215      1.55240         0.000000     -0.029957      0.000000
      0.00000      4.13124      3.10480         0.000000      0.000000      0.000000
      0.00000      4.13124      0.00000         0.000000      0.000000      0.000000
      1.56510      4.44415      4.65720        -0.000469      0.001078      0.000000
     -1.56510      4.44415      4.65720         0.000469      0.001078      0.000000
      1.56510      3.81833      1.55240        -0.000469     -0.001078      0.000000
      0.00000      2.07006      5.86269         0.000000      0.008682      0.047542
      0.00000      6.19241      2.75789         0.000000     -0.008682      0.047542
      0.00000      6.19241      0.34691         0.000000     -0.008682     -0.047542
      0.00000      2.07006      3.45171         0.000000      0.008682     -0.047542
     -1.56510      3.81833      1.55240         0.000469     -0.001078      0.000000
      0.00000      1.21128      4.65720         0.000000      0.030848      0.000000
      0.00000      7.05119      1.55240         0.000000     -0.030848      0.000000
 -----------------------------------------------------------------------------------
    total drift:                                0.000000      0.020013      0.016038


--------------------------------------------------------------------------------------------------------



  FREE ENERGIE OF THE ION-ELECTRON SYSTEM (eV)
  ---------------------------------------------------
  free  energy   TOTEN  =       -81.53555357 eV

  energy  without entropy=      -81.53555357  energy(sigma->0) =      -81.53555357
 
 d Force = 0.4464084E-03[ 0.156E-03, 0.737E-03]  d Energy = 0.2882232E-03 0.158E-03
 d Force = 0.2487372E+01[ 0.248E+01, 0.249E+01]  d Ewald  = 0.3729895E+01-0.124E+01


--------------------------------------------------------------------------------------------------------


    POTLOK:  cpu time    0.04: real time    0.04


--------------------------------------------------------------------------------------------------------




--------------------------------------------------------------------------------------------------------


  
 reached required accuracy - stopping structural energy minimisation
     LOOP+:  cpu time   67.60: real time   67.64
    4ORBIT:  cpu time    0.00: real time    0.00
 


 total charge     
 
# of ion     s       p       d       tot
----------------------------------------
  1        2.063   0.168   0.000   2.231
  2        2.063   0.168   0.000   2.231
  3        2.051   0.138   0.000   2.188
  4        2.051   0.138   0.000   2.188
  5        1.581   3.569   0.000   5.150
  6        1.575   3.582   0.000   5.156
  7        1.575   3.582   0.000   5.156
  8        1.580   3.600   0.000   5.180
  9        1.580   3.601   0.000   5.180
 10        1.580   3.600   0.000   5.180
 11        1.580   3.601   0.000   5.180
 12        1.581   3.569   0.000   5.150
 13        1.227   2.264   0.000   3.492
 14        1.227   2.264   0.000   3.492
------------------------------------------------
tot       23.312  33.843   0.000  57.154
 

 total amount of memory used by VASP on root node    83757. kBytes
========================================================================

   base      :      30000. kBytes
   nonl-proj :      17365. kBytes
   fftplans  :       1429. kBytes
   grid      :       2356. kBytes
   one-center:         12. kBytes
   wavefun   :      32595. kBytes
 
  
  
 General timing and accounting informations for this job:
 ========================================================
  
                  Total CPU time used (sec):      696.687
                            User time (sec):      650.456
                          System time (sec):       46.231
                         Elapsed time (sec):      700.828
  
                   Maximum memory used (kb):      147020.
                   Average memory used (kb):           0.
  
                          Minor page faults:       253468
                          Major page faults:           61
                 Voluntary context switches:         1607
