    2    2    1    1
  0.2076168E+02  0.3462827E-09  0.3462827E-09  0.3462827E-09  0.5000000E-15
  1.000000000000000E-004
  CAR 
 unknown system                          
   14  165   11
 
  0.3742002E-15  0.3742002E-15  0.3742002E-15  0.2441406E-03
   1      -21.253781
   2      -21.253781
   3      -21.253781
   4      -12.707544
   5        0.269606
   6        0.269606
   7        0.269606
   8        4.874690
   9        8.731263
  10        9.326076
  11        9.326068
 
  0.6250000E-01  0.3742002E-15  0.3742002E-15  0.1464844E-02
   1      -21.255556
   2      -21.253619
   3      -21.253619
   4      -12.693748
   5        0.125262
   6        0.278489
   7        0.278489
   8        5.002814
   9        8.731374
  10        9.369854
  11        9.425021
 
  0.1250000E+00  0.3742002E-15  0.3742002E-15  0.1464844E-02
   1      -21.260637
   2      -21.253165
   3      -21.253165
   4      -12.653979
   5       -0.247288
   6        0.303945
   7        0.303945
   8        5.333199
   9        8.731337
  10        9.500487
  11        9.691664
 
  0.1875000E+00  0.3742002E-15  0.3742002E-15  0.1464844E-02
   1      -21.268216
   2      -21.252488
   3      -21.252488
   4      -12.593250
   5       -0.730415
   6        0.342568
   7        0.342568
   8        5.769795
   9        8.731057
  10        9.715315
  11       10.027385
 
  0.2500000E+00  0.3742002E-15  0.3742002E-15  0.1464844E-02
   1      -21.277135
   2      -21.251687
   3      -21.251687
   4      -12.519581
   5       -1.226063
   6        0.389051
   7        0.389051
   8        6.249366
   9        8.730463
  10       10.008652
  11       10.268771
 
  0.3125000E+00  0.3742002E-15  0.3742002E-15  0.1464844E-02
   1      -21.286020
   2      -21.250886
   3      -21.250886
   4      -12.443562
   5       -1.668277
   6        0.436527
   7        0.436527
   8        6.742197
   9        8.729243
  10       10.274246
  11       10.368059
 
  0.3750000E+00  0.3742002E-15  0.3742002E-15  0.1464844E-02
   1      -21.293523
   2      -21.250207
   3      -21.250207
   4      -12.377126
   5       -2.013264
   6        0.477618
   7        0.477618
   8        7.223022
   9        8.726676
  10       10.052282
  11       10.764637
 
  0.4375000E+00  0.3742002E-15  0.3742002E-15  0.1464844E-02
   1      -21.298539
   2      -21.249756
   3      -21.249756
   4      -12.331634
   5       -2.231885
   6        0.505531
   7        0.505531
   8        7.631701
   9        8.721252
  10        9.751351
  11       11.124941
 
  0.5000000E+00  0.3742002E-15  0.3742002E-15  0.7324219E-03
   1      -21.300304
   2      -21.249608
   3      -21.249608
   4      -12.315459
   5       -2.306722
   6        0.515402
   7        0.515402
   8        7.814086
   9        8.716161
  10        9.599155
  11       11.287596
 
  0.6250000E-01  0.6250000E-01  0.3742002E-15  0.2929688E-02
   1      -21.255643
   2      -21.255137
   3      -21.253457
   4      -12.680054
   5        0.098527
   6        0.173350
   7        0.287383
   8        5.128339
   9        8.731436
  10        9.439643
  11        9.495400
 
  0.1250000E+00  0.6250000E-01  0.3742002E-15  0.5859375E-02
   1      -21.260481
   2      -21.254872
   3      -21.253007
   4      -12.640640
   5       -0.242771
   6        0.176004
   7        0.312933
   8        5.452782
   9        8.731392
  10        9.575759
  11        9.748359
 
  0.1875000E+00  0.6250000E-01  0.3742002E-15  0.5859375E-02
   1      -21.268008
   2      -21.254169
   3      -21.252333
   4      -12.580438
   5       -0.718769
   6        0.217419
   7        0.351720
   8        5.882257
   9        8.731189
  10        9.783296
  11       10.074207
 
  0.2500000E+00  0.6250000E-01  0.3742002E-15  0.5859375E-02
   1      -21.276871
   2      -21.253331
   3      -21.251539
   4      -12.507437
   5       -1.209726
   6        0.268904
   7        0.398355
   8        6.354400
   9        8.730644
  10       10.059112
  11       10.297700
 
  0.3125000E+00  0.6250000E-01  0.3742002E-15  0.5859375E-02
   1      -21.285701
   2      -21.252490
   3      -21.250741
   4      -12.432108
   5       -1.648667
   6        0.321901
   7        0.446052
   8        6.840871
   9        8.729549
  10       10.219154
  11       10.446702
 
  0.3750000E+00  0.6250000E-01  0.3742002E-15  0.5859375E-02
   1      -21.293164
   2      -21.251781
   3      -21.250063
   4      -12.366294
   5       -1.991490
   6        0.367881
   7        0.487320
   8        7.320063
   9        8.726982
  10        9.967053
  11       10.819630
 
  0.4375000E+00  0.6250000E-01  0.3742002E-15  0.5859375E-02
   1      -21.298154
   2      -21.251305
   3      -21.249615
   4      -12.321235
   5       -2.208854
   6        0.399143
   7        0.515327
   8        7.738202
   9        8.720956
  10        9.631542
  11       11.189342
 
  0.5000000E+00  0.6250000E-01  0.3742002E-15  0.2929688E-02
   1      -21.299900
   2      -21.251131
   3      -21.249458
   4      -12.305211
   5       -2.283253
   6        0.410257
   7        0.525258
   8        7.933272
   9        8.714106
  10        9.460282
  11       11.375989
 
  0.1250000E+00  0.1250000E+00  0.3742002E-15  0.2929688E-02
   1      -21.260748
   2      -21.259029
   3      -21.252569
   4      -12.602235
   5       -0.301204
   6       -0.084031
   7        0.338730
   8        5.762983
   9        8.731476
  10        9.734694
  11        9.952313
 
  0.1875000E+00  0.1250000E+00  0.3742002E-15  0.5859375E-02
   1      -21.267463
   2      -21.258906
   3      -21.251902
   4      -12.543577
   5       -0.692917
   6       -0.102812
   7        0.377945
   8        6.174099
   9        8.731424
  10        9.908313
  11       10.256936
 
  0.2500000E+00  0.1250000E+00  0.3742002E-15  0.5859375E-02
   1      -21.276134
   2      -21.257993
   3      -21.251113
   4      -12.472494
   5       -1.164108
   6       -0.047029
   7        0.425120
   8        6.624988
   9        8.731138
  10       10.058277
  11       10.496377
 
  0.3125000E+00  0.1250000E+00  0.3742002E-15  0.5859375E-02
   1      -21.284809
   2      -21.257053
   3      -21.250327
   4      -12.399177
   5       -1.592309
   6        0.017163
   7        0.473337
   8        7.089919
   9        8.730296
  10       10.003030
  11       10.705927
 
  0.3750000E+00  0.1250000E+00  0.3742002E-15  0.5859375E-02
   1      -21.292149
   2      -21.256246
   3      -21.249656
   4      -12.335153
   5       -1.928447
   6        0.074440
   7        0.515074
   8        7.556869
   9        8.727996
  10        9.686185
  11       11.011353
 
  0.4375000E+00  0.1250000E+00  0.3742002E-15  0.5859375E-02
   1      -21.297048
   2      -21.255706
   3      -21.249216
   4      -12.291345
   5       -2.141983
   6        0.113857
   7        0.543413
   8        7.998534
   9        8.719450
  10        9.289172
  11       11.367499
 
  0.5000000E+00  0.1250000E+00  0.3742002E-15  0.2929688E-02
   1      -21.298769
   2      -21.255517
   3      -21.249064
   4      -12.275764
   5       -2.215151
   6        0.127898
   7        0.553461
   8        8.252250
   9        8.698411
  10        9.062212
  11       11.632139
 
  0.1875000E+00  0.1875000E+00  0.3742002E-15  0.2929688E-02
   1      -21.267772
   2      -21.264862
   3      -21.251254
   4      -12.487333
   5       -0.745593
   6       -0.431129
   7        0.417791
   8        6.557998
   9        8.732968
  10        9.968005
  11       10.566228
 
  0.2500000E+00  0.1875000E+00  0.3742002E-15  0.5859375E-02
   1      -21.275103
   2      -21.264895
   3      -21.250480
   4      -12.419180
   5       -1.104277
   6       -0.457791
   7        0.465767
   8        6.970372
   9        8.731804
  10        9.901833
  11       10.846771
 
  0.3125000E+00  0.1875000E+00  0.3742002E-15  0.5859375E-02
   1      -21.283486
   2      -21.263856
   3      -21.249709
   4      -12.348970
   5       -1.506983
   6       -0.391173
   7        0.514794
   8        7.381815
   9        8.731776
  10        9.664964
  11       11.066336
 
  0.3750000E+00  0.1875000E+00  0.3742002E-15  0.5859375E-02
   1      -21.290627
   2      -21.262923
   3      -21.249055
   4      -12.287690
   5       -1.830993
   6       -0.322847
   7        0.557246
   8        7.779603
   9        8.731503
  10        9.321440
  11       11.300259
 
  0.4375000E+00  0.1875000E+00  0.3742002E-15  0.5859375E-02
   1      -21.295396
   2      -21.262291
   3      -21.248616
   4      -12.245805
   5       -2.038209
   6       -0.274225
   7        0.586086
   8        8.151938
   9        8.729557
  10        8.963831
  11       11.571356
 
  0.5000000E+00  0.1875000E+00  0.3742002E-15  0.2929688E-02
   1      -21.297074
   2      -21.262067
   3      -21.248465
   4      -12.230901
   5       -2.109364
   6       -0.256703
   7        0.596294
   8        8.402725
   9        8.687909
  10        8.757264
  11       11.853976
 
  0.2500000E+00  0.2500000E+00  0.3742002E-15  0.2929688E-02
   1      -21.275139
   2      -21.271751
   3      -21.249723
   4      -12.354658
   5       -1.120826
   6       -0.795536
   7        0.514704
   8        7.311669
   9        8.732876
  10        9.632614
  11       11.171294
 
  0.3125000E+00  0.2500000E+00  0.3742002E-15  0.5859375E-02
   1      -21.281990
   2      -21.271800
   3      -21.248974
   4      -12.288245
   5       -1.410110
   6       -0.813277
   7        0.564713
   8        7.587312
   9        8.734547
  10        9.353871
  11       11.399470
 
  0.3750000E+00  0.2500000E+00  0.3742002E-15  0.5859375E-02
   1      -21.288838
   2      -21.270779
   3      -21.248341
   4      -12.230330
   5       -1.711274
   6       -0.743414
   7        0.608011
   8        7.742418
   9        8.736978
  10        9.186992
  11       11.575678
 
  0.4375000E+00  0.2500000E+00  0.3742002E-15  0.5859375E-02
   1      -21.293451
   2      -21.270043
   3      -21.247913
   4      -12.190781
   5       -1.909451
   6       -0.687325
   7        0.637442
   8        7.777852
   9        8.738333
  10        9.157301
  11       11.772638
 
  0.5000000E+00  0.2500000E+00  0.3742002E-15  0.2929688E-02
   1      -21.295076
   2      -21.269781
   3      -21.247765
   4      -12.176718
   5       -1.977928
   6       -0.666616
   7        0.647842
   8        7.773934
   9        8.737862
  10        9.168356
  11       11.788660
 
  0.3125000E+00  0.3125000E+00  0.3742002E-15  0.2929688E-02
   1      -21.281550
   2      -21.278672
   3      -21.248244
   4      -12.225775
   5       -1.380126
   6       -1.122754
   7        0.615733
   8        7.586079
   9        8.736540
  10        9.260026
  11       11.627686
 
  0.3750000E+00  0.3125000E+00  0.3742002E-15  0.5859375E-02
   1      -21.287077
   2      -21.278580
   3      -21.247620
   4      -12.171391
   5       -1.588565
   6       -1.122475
   7        0.659955
   8        7.418952
   9        8.735545
  10        9.390588
  11       11.766148
 
  0.4375000E+00  0.3125000E+00  0.3742002E-15  0.5859375E-02
   1      -21.291513
   2      -21.277776
   3      -21.247208
   4      -12.134255
   5       -1.772898
   6       -1.064482
   7        0.689965
   8        7.251878
   9        8.734849
  10        9.573307
  11       11.851289
 
  0.5000000E+00  0.3125000E+00  0.3742002E-15  0.2929688E-02
   1      -21.293076
   2      -21.277478
   3      -21.247059
   4      -12.121067
   5       -1.838209
   6       -1.041278
   7        0.700617
   8        7.186716
   9        8.734219
  10        9.655682
  11       11.853652
 
  0.3750000E+00  0.3750000E+00  0.3742002E-15  0.2929688E-02
   1      -21.286226
   2      -21.284549
   3      -21.247015
   4      -12.120091
   5       -1.522532
   6       -1.377046
   7        0.704902
   8        7.060706
   9        8.733869
  10        9.714779
  11       11.889508
 
  0.4375000E+00  0.3750000E+00  0.3742002E-15  0.5859375E-02
   1      -21.289871
   2      -21.284319
   3      -21.246609
   4      -12.085097
   5       -1.650569
   6       -1.361927
   7        0.735460
   8        6.809540
   9        8.733088
  10       10.005666
  11       11.947157
 
  0.5000000E+00  0.3750000E+00  0.3742002E-15  0.2929688E-02
   1      -21.291388
   2      -21.283994
   3      -21.246465
   4      -12.072675
   5       -1.712220
   6       -1.337604
   7        0.746279
   8        6.720607
   9        8.732867
  10       10.129474
  11       11.947402
 
  0.4375000E+00  0.4375000E+00  0.3742002E-15  0.2929688E-02
   1      -21.288969
   2      -21.288480
   3      -21.246207
   4      -12.051584
   5       -1.579172
   6       -1.537019
   7        0.766372
   8        6.521403
   9        8.732615
  10       10.377669
  11       12.010675
 
  0.5000000E+00  0.4375000E+00  0.3742002E-15  0.2929688E-02
   1      -21.290266
   2      -21.288341
   3      -21.246066
   4      -12.039670
   5       -1.623570
   6       -1.526628
   7        0.777330
   8        6.421595
   9        8.732610
  10       10.544264
  11       12.082679
 
  0.5000000E+00  0.5000000E+00  0.3742002E-15  0.7324219E-03
   1      -21.289863
   2      -21.289862
   3      -21.245930
   4      -12.027964
   5       -1.591471
   6       -1.591474
   7        0.788353
   8        6.318505
   9        8.732444
  10       10.741419
  11       12.034713
 
  0.6250000E-01  0.6250000E-01  0.6250000E-01  0.1953125E-02
   1      -21.255721
   2      -21.254983
   3      -21.254982
   4      -12.666471
   5        0.074230
   6        0.182704
   7        0.182704
   8        5.251485
   9        8.731425
  10        9.536351
  11        9.536349
 
  0.1250000E+00  0.6250000E-01  0.6250000E-01  0.5859375E-02
   1      -21.260326
   2      -21.254907
   3      -21.254517
   4      -12.627400
   5       -0.238547
   6        0.163462
   7        0.209615
   8        5.570332
   9        8.731454
  10        9.658400
  11        9.795632
 
  0.1875000E+00  0.6250000E-01  0.6250000E-01  0.5859375E-02
   1      -21.267802
   2      -21.254193
   3      -21.253827
   4      -12.567710
   5       -0.707118
   6        0.204821
   7        0.250507
   8        5.992855
   9        8.731542
  10        9.858560
  11       10.112305
 
  0.2500000E+00  0.6250000E-01  0.6250000E-01  0.5859375E-02
   1      -21.276611
   2      -21.253339
   3      -21.253016
   4      -12.495345
   5       -1.193432
   6        0.258467
   7        0.299737
   8        6.457465
   9        8.730834
  10       10.130947
  11       10.304320
 
  0.3125000E+00  0.6250000E-01  0.6250000E-01  0.5859375E-02
   1      -21.285390
   2      -21.252480
   3      -21.252197
   4      -12.420685
   5       -1.629220
   6        0.314077
   7        0.350147
   8        6.937194
   9        8.729840
  10       10.225158
  11       10.464843
 
  0.3750000E+00  0.6250000E-01  0.6250000E-01  0.5859375E-02
   1      -21.292816
   2      -21.251757
   3      -21.251511
   4      -12.355476
   5       -1.969935
   6        0.362415
   7        0.393814
   8        7.414193
   9        8.727661
  10        9.917383
  11       10.840949
 
  0.4375000E+00  0.6250000E-01  0.6250000E-01  0.5859375E-02
   1      -21.297770
   2      -21.251271
   3      -21.251050
   4      -12.310830
   5       -2.186048
   6        0.395337
   7        0.423498
   8        7.842236
   9        8.720639
  10        9.546239
  11       11.222128
 
  0.5000000E+00  0.6250000E-01  0.6250000E-01  0.2929688E-02
   1      -21.299510
   2      -21.251100
   3      -21.250888
   4      -12.294954
   5       -2.260048
   6        0.407009
   7        0.434034
   8        8.052956
   9        8.725247
  10        9.353687
  11       11.485448
 
  0.1250000E+00  0.1250000E+00  0.6250000E-01  0.5859375E-02
   1      -21.260595
   2      -21.258858
   3      -21.254223
   4      -12.589286
   5       -0.297044
   6       -0.073446
   7        0.219135
   8        5.875451
   9        8.731617
  10        9.827369
  11        9.983048
 
  0.1875000E+00  0.1250000E+00  0.6250000E-01  0.1171875E-01
   1      -21.267258
   2      -21.258748
   3      -21.253534
   4      -12.531092
   5       -0.681169
   6       -0.094145
   7        0.260825
   8        6.279608
   9        8.731975
  10        9.998271
  11       10.275462
 
  0.2500000E+00  0.1250000E+00  0.6250000E-01  0.1171875E-01
   1      -21.275878
   2      -21.257840
   3      -21.252717
   4      -12.460567
   5       -1.147936
   6       -0.038464
   7        0.311861
   8        6.722161
   9        8.731470
  10       10.150251
  11       10.479021
 
  0.3125000E+00  0.1250000E+00  0.6250000E-01  0.1171875E-01
   1      -21.284507
   2      -21.256902
   3      -21.251899
   4      -12.387849
   5       -1.573245
   6        0.026083
   7        0.364278
   8        7.178596
   9        8.731610
  10       10.065590
  11       10.663691
 
  0.3750000E+00  0.1250000E+00  0.6250000E-01  0.1171875E-01
   1      -21.291812
   2      -21.256101
   3      -21.251206
   4      -12.324357
   5       -1.907462
   6        0.083699
   7        0.409807
   8        7.640172
   9        8.728934
  10        9.709696
  11       10.942597
 
  0.4375000E+00  0.1250000E+00  0.6250000E-01  0.1171875E-01
   1      -21.296680
   2      -21.255558
   3      -21.250736
   4      -12.280914
   5       -2.119880
   6        0.123360
   7        0.440821
   8        8.088879
   9        8.721354
  10        9.281027
  11       11.250103
 
  0.5000000E+00  0.1250000E+00  0.6250000E-01  0.5859375E-02
   1      -21.298394
   2      -21.255369
   3      -21.250570
   4      -12.265465
   5       -2.192683
   6        0.137482
   7        0.451825
   8        8.372740
   9        8.694368
  10        9.022617
  11       11.612501
 
  0.1875000E+00  0.1875000E+00  0.6250000E-01  0.5859375E-02
   1      -21.267560
   2      -21.264677
   3      -21.252858
   4      -12.475212
   5       -0.732753
   6       -0.419200
   7        0.302983
   8        6.655606
   9        8.731986
  10       10.058960
  11       10.571056
 
  0.2500000E+00  0.1875000E+00  0.6250000E-01  0.1171875E-01
   1      -21.274858
   2      -21.264710
   3      -21.252058
   4      -12.407514
   5       -1.088144
   6       -0.446016
   7        0.354561
   8        7.057344
   9        8.732326
  10        9.990347
  11       10.820553
 
  0.3125000E+00  0.1875000E+00  0.6250000E-01  0.1171875E-01
   1      -21.283201
   2      -21.263677
   3      -21.251260
   4      -12.337784
   5       -1.488498
   6       -0.379527
   7        0.407510
   8        7.455894
   9        8.732641
  10        9.746762
  11       10.987082
 
  0.3750000E+00  0.1875000E+00  0.6250000E-01  0.1171875E-01
   1      -21.290307
   2      -21.262751
   3      -21.250580
   4      -12.276932
   5       -1.810934
   6       -0.311318
   7        0.453501
   8        7.839018
   9        8.733331
  10        9.398174
  11       11.131337
 
  0.4375000E+00  0.1875000E+00  0.6250000E-01  0.1171875E-01
   1      -21.295056
   2      -21.262125
   3      -21.250127
   4      -12.235340
   5       -2.017235
   6       -0.262783
   7        0.484816
   8        8.191600
   9        8.736103
  10        9.043274
  11       11.239174
 
  0.5000000E+00  0.1875000E+00  0.6250000E-01  0.5859375E-02
   1      -21.296723
   2      -21.261905
   3      -21.249966
   4      -12.220535
   5       -2.088076
   6       -0.245306
   7        0.495928
   8        8.404495
   9        8.757721
  10        8.807177
  11       11.289224
 
  0.2500000E+00  0.2500000E+00  0.6250000E-01  0.5859375E-02
   1      -21.274889
   2      -21.271554
   3      -21.251286
   4      -12.343318
   5       -1.103886
   6       -0.782490
   7        0.406632
   8        7.383665
   9        8.734757
  10        9.721104
  11       11.115529
 
  0.3125000E+00  0.2500000E+00  0.6250000E-01  0.1171875E-01
   1      -21.281719
   2      -21.271598
   3      -21.250505
   4      -12.277235
   5       -1.392197
   6       -0.799874
   7        0.460118
   8        7.640473
   9        8.735482
  10        9.447258
  11       11.279939
 
  0.3750000E+00  0.2500000E+00  0.6250000E-01  0.1171875E-01
   1      -21.288542
   2      -21.270581
   3      -21.249842
   4      -12.219623
   5       -1.692390
   6       -0.730247
   7        0.506553
   8        7.777754
   9        8.744149
  10        9.289630
  11       11.339460
 
  0.4375000E+00  0.2500000E+00  0.6250000E-01  0.1171875E-01
   1      -21.293141
   2      -21.269853
   3      -21.249403
   4      -12.180274
   5       -1.889942
   6       -0.674478
   7        0.538156
   8        7.803810
   9        8.738128
  10        9.267865
  11       11.299958
 
  0.5000000E+00  0.2500000E+00  0.6250000E-01  0.5859375E-02
   1      -21.294758
   2      -21.269594
   3      -21.249247
   4      -12.166276
   5       -1.958182
   6       -0.653890
   7        0.549385
   8        7.797726
   9        8.738103
  10        9.282076
  11       11.271277
 
  0.3125000E+00  0.3125000E+00  0.6250000E-01  0.5859375E-02
   1      -21.281280
   2      -21.278459
   3      -21.249751
   4      -12.214952
   5       -1.362169
   6       -1.108915
   7        0.514092
   8        7.623043
   9        8.736868
  10        9.358327
  11       11.456893
 
  0.3750000E+00  0.3125000E+00  0.6250000E-01  0.1171875E-01
   1      -21.286808
   2      -21.278364
   3      -21.249109
   4      -12.160734
   5       -1.570903
   6       -1.108286
   7        0.560954
   8        7.452131
   9        8.735574
  10        9.486304
  11       11.497568
 
  0.4375000E+00  0.3125000E+00  0.6250000E-01  0.1171875E-01
   1      -21.291227
   2      -21.277568
   3      -21.248678
   4      -12.123708
   5       -1.755002
   6       -1.050642
   7        0.592852
   8        7.285600
   9        8.734495
  10        9.672395
  11       11.412610
 
  0.5000000E+00  0.3125000E+00  0.6250000E-01  0.5859375E-02
   1      -21.292794
   2      -21.277276
   3      -21.248528
   4      -12.110564
   5       -1.820207
   6       -1.027640
   7        0.604172
   8        7.220863
   9        8.734155
  10        9.760190
  11       11.352576
 
  0.3750000E+00  0.3750000E+00  0.6250000E-01  0.5859375E-02
   1      -21.285967
   2      -21.284323
   3      -21.248485
   4      -12.109479
   5       -1.505540
   6       -1.362698
   7        0.608155
   8        7.097210
   9        8.733785
  10        9.799754
  11       11.577845
 
  0.4375000E+00  0.3750000E+00  0.6250000E-01  0.1171875E-01
   1      -21.289609
   2      -21.284090
   3      -21.248063
   4      -12.074518
   5       -1.634194
   6       -1.347455
   7        0.640303
   8        6.848359
   9        8.733072
  10       10.094643
  11       11.527441
 
  0.5000000E+00  0.3750000E+00  0.6250000E-01  0.5859375E-02
   1      -21.291127
   2      -21.283767
   3      -21.247919
   4      -12.062108
   5       -1.695843
   6       -1.323342
   7        0.651697
   8        6.760204
   9        8.732880
  10       10.229484
  11       11.457388
 
  0.4375000E+00  0.4375000E+00  0.6250000E-01  0.5859375E-02
   1      -21.288728
   2      -21.288247
   3      -21.247655
   4      -12.040988
   5       -1.563742
   6       -1.522407
   7        0.672578
   8        6.562982
   9        8.732497
  10       10.477117
  11       11.583515
 
  0.5000000E+00  0.4375000E+00  0.6250000E-01  0.5859375E-02
   1      -21.290020
   2      -21.288109
   3      -21.247512
   4      -12.029068
   5       -1.608417
   6       -1.512035
   7        0.684020
   8        6.464067
   9        8.732540
  10       10.669763
  11       11.548447
 
  0.5000000E+00  0.5000000E+00  0.6250000E-01  0.1464844E-02
   1      -21.289627
   2      -21.289626
   3      -21.247363
   4      -12.017352
   5       -1.576808
   6       -1.576811
   7        0.695498
   8        6.361895
   9        8.732239
  10       10.931072
  11       11.568913
 
  0.1250000E+00  0.1250000E+00  0.1250000E+00  0.1953125E-02
   1      -21.260732
   2      -21.258370
   3      -21.258370
   4      -12.552026
   5       -0.334722
   6       -0.043018
   7       -0.043018
   8        6.167285
   9        8.731964
  10       10.072939
  11       10.072941
 
  0.1875000E+00  0.1250000E+00  0.1250000E+00  0.5859375E-02
   1      -21.266721
   2      -21.258787
   3      -21.257647
   4      -12.495173
   5       -0.655015
   6       -0.112086
   7        0.003291
   8        6.551948
   9        8.732351
  10       10.214388
  11       10.347086
 
  0.2500000E+00  0.1250000E+00  0.1250000E+00  0.5859375E-02
   1      -21.275168
   2      -21.257873
   3      -21.256792
   4      -12.426279
   5       -1.102768
   6       -0.059956
   7        0.059259
   8        6.969059
   9        8.732299
  10       10.392359
  11       10.416755
 
  0.3125000E+00  0.1250000E+00  0.1250000E+00  0.5859375E-02
   1      -21.283655
   2      -21.256896
   3      -21.255937
   4      -12.355281
   5       -1.518399
   6        0.008728
   7        0.116772
   8        7.395743
   9        8.732366
  10       10.162383
  11       10.580686
 
  0.3750000E+00  0.1250000E+00  0.1250000E+00  0.5859375E-02
   1      -21.290847
   2      -21.256058
   3      -21.255214
   4      -12.293305
   5       -1.846707
   6        0.071474
   7        0.166767
   8        7.829113
   9        8.732107
  10        9.725282
  11       10.739540
 
  0.4375000E+00  0.1250000E+00  0.1250000E+00  0.5859375E-02
   1      -21.295642
   2      -21.255494
   3      -21.254727
   4      -12.250931
   5       -2.055800
   6        0.115016
   7        0.200900
   8        8.270401
   9        8.730857
  10        9.245587
  11       10.832349
 
  0.5000000E+00  0.1250000E+00  0.1250000E+00  0.2929688E-02
   1      -21.297328
   2      -21.255293
   3      -21.254560
   4      -12.235860
   5       -2.127499
   6        0.130581
   7        0.213003
   8        8.659611
   9        8.691850
  10        8.877595
  11       10.857269
 
  0.1875000E+00  0.1875000E+00  0.1250000E+00  0.5859375E-02
   1      -21.266999
   2      -21.264152
   3      -21.257396
   4      -12.440351
   5       -0.702109
   6       -0.384833
   7        0.005316
   8        6.904630
   9        8.732881
  10       10.301818
  11       10.577258
 
  0.2500000E+00  0.1875000E+00  0.1250000E+00  0.1171875E-01
   1      -21.274169
   2      -21.264205
   3      -21.256539
   4      -12.373974
   5       -1.043009
   6       -0.414394
   7        0.061906
   8        7.273785
   9        8.733624
  10       10.230941
  11       10.722729
 
  0.3125000E+00  0.1875000E+00  0.1250000E+00  0.1171875E-01
   1      -21.282392
   2      -21.263189
   3      -21.255663
   4      -12.305624
   5       -1.435349
   6       -0.348445
   7        0.122939
   8        7.630921
   9        8.734741
  10        9.971992
  11       10.719785
 
  0.3750000E+00  0.1875000E+00  0.1250000E+00  0.1171875E-01
   1      -21.289403
   2      -21.262278
   3      -21.254913
   4      -12.245992
   5       -1.752914
   6       -0.280208
   7        0.176790
   8        7.963699
   9        8.737407
  10        9.612737
  11       10.650389
 
  0.4375000E+00  0.1875000E+00  0.1250000E+00  0.1171875E-01
   1      -21.294088
   2      -21.261662
   3      -21.254412
   4      -12.205260
   5       -1.956456
   6       -0.231634
   7        0.213770
   8        8.248565
   9        8.744777
  10        9.280252
  11       10.563998
 
  0.5000000E+00  0.1875000E+00  0.1250000E+00  0.5859375E-02
   1      -21.295732
   2      -21.261445
   3      -21.254235
   4      -12.190760
   5       -2.026392
   6       -0.214154
   7        0.226954
   8        8.386088
   9        8.756946
  10        9.114767
  11       10.525083
 
  0.2500000E+00  0.2500000E+00  0.1250000E+00  0.5859375E-02
   1      -21.274179
   2      -21.270993
   3      -21.255702
   4      -12.310702
   5       -1.056157
   6       -0.744891
   7        0.118554
   8        7.557390
   9        8.735260
  10        9.955330
  11       10.935377
 
  0.3125000E+00  0.2500000E+00  0.1250000E+00  0.1171875E-01
   1      -21.280959
   2      -21.271021
   3      -21.254853
   4      -12.245578
   5       -1.340732
   6       -0.761580
   7        0.179604
   8        7.764949
   9        8.737325
  10        9.683899
  11       10.933025
 
  0.3750000E+00  0.2500000E+00  0.1250000E+00  0.1171875E-01
   1      -21.287705
   2      -21.270028
   3      -21.254128
   4      -12.188824
   5       -1.637811
   6       -0.692682
   7        0.233421
   8        7.861908
   9        8.741019
  10        9.536724
  11       10.761445
 
  0.4375000E+00  0.2500000E+00  0.1250000E+00  0.1171875E-01
   1      -21.292252
   2      -21.269317
   3      -21.253643
   4      -12.150076
   5       -1.833419
   6       -0.637769
   7        0.270311
   8        7.869644
   9        8.738765
  10        9.529272
  11       10.555242
 
  0.5000000E+00  0.2500000E+00  0.1250000E+00  0.5859375E-02
   1      -21.293853
   2      -21.269066
   3      -21.253473
   4      -12.136306
   5       -1.901014
   6       -0.617540
   7        0.283439
   8        7.859810
   9        8.738467
  10        9.554399
  11       10.460222
 
  0.3125000E+00  0.3125000E+00  0.1250000E+00  0.5859375E-02
   1      -21.280519
   2      -21.277849
   3      -21.254030
   4      -12.183832
   5       -1.310473
   6       -1.068956
   7        0.240212
   8        7.717873
   9        8.737568
  10        9.572130
  11       11.013667
 
  0.3750000E+00  0.3125000E+00  0.1250000E+00  0.1171875E-01
   1      -21.286037
   2      -21.277742
   3      -21.253333
   4      -12.130093
   5       -1.519888
   6       -1.067342
   7        0.293458
   8        7.544675
   9        8.735777
  10        9.663590
  11       10.896499
 
  0.4375000E+00  0.3125000E+00  0.1250000E+00  0.1171875E-01
   1      -21.290422
   2      -21.276971