unknown system                          
           1
     3.462827    0.000000    0.000000
     0.000000    3.462827    0.000000
     0.000000    0.000000    3.462827
   Cl   Na
   1   1
Direct configuration=     1
   0.49999893  0.49999893  0.49999893
   0.00000000  0.00000000  0.00000000
