   4   4   1   0
  0.1599035E+02  0.3457000E-09  0.3457000E-09  0.6180000E-09  0.5000000E-15
  1.000000000000000E-004
  CAR 
 unknown system                          
     15.11106586    -44.02192699  301      4.95680275      1.00000000
    -44.022  0.0000E+00  0.0000E+00  0.0000E+00  0.0000E+00
    -43.825  0.0000E+00  0.0000E+00  0.0000E+00  0.0000E+00
    -43.628  0.0000E+00  0.0000E+00  0.0000E+00  0.0000E+00
    -43.431  0.0000E+00  0.0000E+00  0.0000E+00  0.0000E+00
    -43.233  0.0000E+00  0.0000E+00  0.0000E+00  0.0000E+00
    -43.036 -0.4474E-32 -0.4474E-32 -0.8818E-33 -0.8819E-33
    -42.839 -0.3047E-25 -0.3047E-25 -0.6005E-26 -0.6006E-26
    -42.642 -0.2924E-19 -0.2924E-19 -0.5764E-20 -0.5764E-20
    -42.445 -0.3809E-14 -0.3809E-14 -0.7508E-15 -0.7508E-15
    -42.248 -0.7007E-10 -0.7008E-10 -0.1381E-10 -0.1381E-10
    -42.051 -0.1738E-06 -0.1738E-06 -0.3427E-07 -0.3427E-07
    -41.854 -0.5482E-04 -0.5482E-04 -0.1084E-04 -0.1084E-04
    -41.657 -0.1741E-02 -0.1741E-02 -0.3540E-03 -0.3540E-03
    -41.459  0.6633E-02  0.6633E-02  0.9534E-03  0.9534E-03
    -41.262  0.5977E-01  0.5977E-01  0.1273E-01  0.1273E-01
    -41.065  0.2285E-01  0.2285E-01  0.1724E-01  0.1724E-01
    -40.868 -0.2674E-02 -0.2674E-02  0.1671E-01  0.1671E-01
    -40.671 -0.2247E-03 -0.2247E-03  0.1667E-01  0.1667E-01
    -40.474 -0.1442E-05 -0.1442E-05  0.1667E-01  0.1667E-01
    -40.277 -0.1132E-08 -0.1132E-08  0.1667E-01  0.1667E-01
    -40.080 -0.1181E-12 -0.1181E-12  0.1667E-01  0.1667E-01
    -39.883  0.0000E+00  0.0000E+00  0.1667E-01  0.1667E-01
    -39.686  0.0000E+00  0.0000E+00  0.1667E-01  0.1667E-01
    -39.488  0.0000E+00  0.0000E+00  0.1667E-01  0.1667E-01
    -39.291  0.0000E+00  0.0000E+00  0.1667E-01  0.1667E-01
    -39.094  0.0000E+00  0.0000E+00  0.1667E-01  0.1667E-01
    -38.897  0.0000E+00  0.0000E+00  0.1667E-01  0.1667E-01
    -38.700  0.0000E+00  0.0000E+00  0.1667E-01  0.1667E-01
    -38.503  0.0000E+00  0.0000E+00  0.1667E-01  0.1667E-01
    -38.306  0.0000E+00  0.0000E+00  0.1667E-01  0.1667E-01
    -38.109  0.0000E+00  0.0000E+00  0.1667E-01  0.1667E-01
    -37.912  0.0000E+00  0.0000E+00  0.1667E-01  0.1667E-01
    -37.714  0.0000E+00  0.0000E+00  0.1667E-01  0.1667E-01
    -37.517  0.0000E+00  0.0000E+00  0.1667E-01  0.1667E-01
    -37.320  0.0000E+00  0.0000E+00  0.1667E-01  0.1667E-01
    -37.123  0.0000E+00  0.0000E+00  0.1667E-01  0.1667E-01
    -36.926  0.0000E+00  0.0000E+00  0.1667E-01  0.1667E-01
    -36.729  0.0000E+00  0.0000E+00  0.1667E-01  0.1667E-01
    -36.532  0.0000E+00  0.0000E+00  0.1667E-01  0.1667E-01
    -36.335  0.0000E+00  0.0000E+00  0.1667E-01  0.1667E-01
    -36.138  0.0000E+00  0.0000E+00  0.1667E-01  0.1667E-01
    -35.940  0.0000E+00  0.0000E+00  0.1667E-01  0.1667E-01
    -35.743  0.0000E+00  0.0000E+00  0.1667E-01  0.1667E-01
    -35.546  0.0000E+00  0.0000E+00  0.1667E-01  0.1667E-01
    -35.349  0.0000E+00  0.0000E+00  0.1667E-01  0.1667E-01
    -35.152  0.0000E+00  0.0000E+00  0.1667E-01  0.1667E-01
    -34.955  0.0000E+00  0.0000E+00  0.1667E-01  0.1667E-01
    -34.758  0.0000E+00  0.0000E+00  0.1667E-01  0.1667E-01
    -34.561  0.0000E+00  0.0000E+00  0.1667E-01  0.1667E-01
    -34.364  0.0000E+00  0.0000E+00  0.1667E-01  0.1667E-01
    -34.166  0.0000E+00  0.0000E+00  0.1667E-01  0.1667E-01
    -33.969  0.0000E+00  0.0000E+00  0.1667E-01  0.1667E-01
    -33.772  0.0000E+00  0.0000E+00  0.1667E-01  0.1667E-01
    -33.575  0.0000E+00  0.0000E+00  0.1667E-01  0.1667E-01
    -33.378  0.0000E+00  0.0000E+00  0.1667E-01  0.1667E-01
    -33.181  0.0000E+00  0.0000E+00  0.1667E-01  0.1667E-01
    -32.984  0.0000E+00  0.0000E+00  0.1667E-01  0.1667E-01
    -32.787  0.0000E+00  0.0000E+00  0.1667E-01  0.1667E-01
    -32.590  0.0000E+00  0.0000E+00  0.1667E-01  0.1667E-01
    -32.392  0.0000E+00  0.0000E+00  0.1667E-01  0.1667E-01
    -32.195  0.0000E+00  0.0000E+00  0.1667E-01  0.1667E-01
    -31.998  0.0000E+00  0.0000E+00  0.1667E-01  0.1667E-01
    -31.801  0.0000E+00  0.0000E+00  0.1667E-01  0.1667E-01
    -31.604  0.0000E+00  0.0000E+00  0.1667E-01  0.1667E-01
    -31.407  0.0000E+00  0.0000E+00  0.1667E-01  0.1667E-01
    -31.210  0.0000E+00  0.0000E+00  0.1667E-01  0.1667E-01
    -31.013  0.0000E+00  0.0000E+00  0.1667E-01  0.1667E-01
    -30.816  0.0000E+00  0.0000E+00  0.1667E-01  0.1667E-01
    -30.618  0.0000E+00  0.0000E+00  0.1667E-01  0.1667E-01
    -30.421  0.0000E+00  0.0000E+00  0.1667E-01  0.1667E-01
    -30.224  0.0000E+00  0.0000E+00  0.1667E-01  0.1667E-01
    -30.027  0.0000E+00  0.0000E+00  0.1667E-01  0.1667E-01
    -29.830  0.0000E+00  0.0000E+00  0.1667E-01  0.1667E-01
    -29.633  0.0000E+00  0.0000E+00  0.1667E-01  0.1667E-01
    -29.436  0.0000E+00  0.0000E+00  0.1667E-01  0.1667E-01
    -29.239  0.0000E+00  0.0000E+00  0.1667E-01  0.1667E-01
    -29.042  0.0000E+00  0.0000E+00  0.1667E-01  0.1667E-01
    -28.844  0.0000E+00  0.0000E+00  0.1667E-01  0.1667E-01
    -28.647  0.0000E+00  0.0000E+00  0.1667E-01  0.1667E-01
    -28.450  0.0000E+00  0.0000E+00  0.1667E-01  0.1667E-01
    -28.253  0.0000E+00  0.0000E+00  0.1667E-01  0.1667E-01
    -28.056  0.0000E+00  0.0000E+00  0.1667E-01  0.1667E-01
    -27.859  0.0000E+00  0.0000E+00  0.1667E-01  0.1667E-01
    -27.662  0.0000E+00  0.0000E+00  0.1667E-01  0.1667E-01
    -27.465  0.0000E+00  0.0000E+00  0.1667E-01  0.1667E-01
    -27.268  0.0000E+00  0.0000E+00  0.1667E-01  0.1667E-01
    -27.070  0.0000E+00  0.0000E+00  0.1667E-01  0.1667E-01
    -26.873  0.0000E+00  0.0000E+00  0.1667E-01  0.1667E-01
    -26.676  0.0000E+00  0.0000E+00  0.1667E-01  0.1667E-01
    -26.479  0.0000E+00  0.0000E+00  0.1667E-01  0.1667E-01
    -26.282  0.0000E+00  0.0000E+00  0.1667E-01  0.1667E-01
    -26.085  0.0000E+00  0.0000E+00  0.1667E-01  0.1667E-01
    -25.888  0.0000E+00  0.0000E+00  0.1667E-01  0.1667E-01
    -25.691  0.0000E+00  0.0000E+00  0.1667E-01  0.1667E-01
    -25.494  0.0000E+00  0.0000E+00  0.1667E-01  0.1667E-01
    -25.296  0.0000E+00  0.0000E+00  0.1667E-01  0.1667E-01
    -25.099  0.0000E+00  0.0000E+00  0.1667E-01  0.1667E-01
    -24.902  0.0000E+00  0.0000E+00  0.1667E-01  0.1667E-01
    -24.705  0.0000E+00  0.0000E+00  0.1667E-01  0.1667E-01
    -24.508  0.0000E+00  0.0000E+00  0.1667E-01  0.1667E-01
    -24.311  0.0000E+00  0.0000E+00  0.1667E-01  0.1667E-01
    -24.114  0.0000E+00  0.0000E+00  0.1667E-01  0.1667E-01
    -23.917  0.0000E+00  0.0000E+00  0.1667E-01  0.1667E-01
    -23.720  0.0000E+00  0.0000E+00  0.1667E-01  0.1667E-01
    -23.522  0.0000E+00  0.0000E+00  0.1667E-01  0.1667E-01
    -23.325  0.0000E+00  0.0000E+00  0.1667E-01  0.1667E-01
    -23.128  0.0000E+00  0.0000E+00  0.1667E-01  0.1667E-01
    -22.931  0.0000E+00  0.0000E+00  0.1667E-01  0.1667E-01
    -22.734  0.0000E+00  0.0000E+00  0.1667E-01  0.1667E-01
    -22.537  0.0000E+00  0.0000E+00  0.1667E-01  0.1667E-01
    -22.340  0.0000E+00  0.0000E+00  0.1667E-01  0.1667E-01
    -22.143  0.0000E+00  0.0000E+00  0.1667E-01  0.1667E-01
    -21.946  0.0000E+00  0.0000E+00  0.1667E-01  0.1667E-01
    -21.748  0.0000E+00  0.0000E+00  0.1667E-01  0.1667E-01
    -21.551  0.0000E+00  0.0000E+00  0.1667E-01  0.1667E-01
    -21.354  0.0000E+00  0.0000E+00  0.1667E-01  0.1667E-01
    -21.157  0.0000E+00  0.0000E+00  0.1667E-01  0.1667E-01
    -20.960  0.0000E+00  0.0000E+00  0.1667E-01  0.1667E-01
    -20.763  0.0000E+00  0.0000E+00  0.1667E-01  0.1667E-01
    -20.566  0.0000E+00  0.0000E+00  0.1667E-01  0.1667E-01
    -20.369  0.0000E+00  0.0000E+00  0.1667E-01  0.1667E-01
    -20.172  0.0000E+00  0.0000E+00  0.1667E-01  0.1667E-01
    -19.975  0.0000E+00  0.0000E+00  0.1667E-01  0.1667E-01
    -19.777  0.0000E+00  0.0000E+00  0.1667E-01  0.1667E-01
    -19.580  0.0000E+00  0.0000E+00  0.1667E-01  0.1667E-01
    -19.383  0.0000E+00  0.0000E+00  0.1667E-01  0.1667E-01
    -19.186  0.0000E+00  0.0000E+00  0.1667E-01  0.1667E-01
    -18.989  0.0000E+00  0.0000E+00  0.1667E-01  0.1667E-01
    -18.792  0.0000E+00  0.0000E+00  0.1667E-01  0.1667E-01
    -18.595  0.0000E+00  0.0000E+00  0.1667E-01  0.1667E-01
    -18.398  0.0000E+00  0.0000E+00  0.1667E-01  0.1667E-01
    -18.201  0.0000E+00  0.0000E+00  0.1667E-01  0.1667E-01
    -18.003  0.0000E+00  0.0000E+00  0.1667E-01  0.1667E-01
    -17.806  0.0000E+00  0.0000E+00  0.1667E-01  0.1667E-01
    -17.609  0.0000E+00  0.0000E+00  0.1667E-01  0.1667E-01
    -17.412  0.0000E+00  0.0000E+00  0.1667E-01  0.1667E-01
    -17.215  0.0000E+00  0.0000E+00  0.1667E-01  0.1667E-01
    -17.018  0.0000E+00  0.0000E+00  0.1667E-01  0.1667E-01
    -16.821  0.0000E+00  0.0000E+00  0.1667E-01  0.1667E-01
    -16.624  0.0000E+00  0.0000E+00  0.1667E-01  0.1667E-01
    -16.427  0.0000E+00  0.0000E+00  0.1667E-01  0.1667E-01
    -16.229  0.0000E+00  0.0000E+00  0.1667E-01  0.1667E-01
    -16.032  0.0000E+00  0.0000E+00  0.1667E-01  0.1667E-01
    -15.835  0.0000E+00  0.0000E+00  0.1667E-01  0.1667E-01
    -15.638  0.0000E+00  0.0000E+00  0.1667E-01  0.1667E-01
    -15.441  0.0000E+00  0.0000E+00  0.1667E-01  0.1667E-01
    -15.244  0.0000E+00  0.0000E+00  0.1667E-01  0.1667E-01
    -15.047  0.0000E+00  0.0000E+00  0.1667E-01  0.1667E-01
    -14.850  0.0000E+00  0.0000E+00  0.1667E-01  0.1667E-01
    -14.653  0.0000E+00  0.0000E+00  0.1667E-01  0.1667E-01
    -14.455  0.0000E+00  0.0000E+00  0.1667E-01  0.1667E-01
    -14.258  0.0000E+00  0.0000E+00  0.1667E-01  0.1667E-01
    -14.061  0.0000E+00  0.0000E+00  0.1667E-01  0.1667E-01
    -13.864  0.0000E+00  0.0000E+00  0.1667E-01  0.1667E-01
    -13.667  0.0000E+00  0.0000E+00  0.1667E-01  0.1667E-01
    -13.470  0.0000E+00  0.0000E+00  0.1667E-01  0.1667E-01
    -13.273  0.0000E+00  0.0000E+00  0.1667E-01  0.1667E-01
    -13.076  0.0000E+00  0.0000E+00  0.1667E-01  0.1667E-01
    -12.879  0.0000E+00  0.0000E+00  0.1667E-01  0.1667E-01
    -12.681  0.0000E+00  0.0000E+00  0.1667E-01  0.1667E-01
    -12.484  0.0000E+00  0.0000E+00  0.1667E-01  0.1667E-01
    -12.287  0.0000E+00  0.0000E+00  0.1667E-01  0.1667E-01
    -12.090  0.0000E+00  0.0000E+00  0.1667E-01  0.1667E-01
    -11.893  0.0000E+00  0.0000E+00  0.1667E-01  0.1667E-01
    -11.696  0.0000E+00  0.0000E+00  0.1667E-01  0.1667E-01
    -11.499  0.0000E+00  0.0000E+00  0.1667E-01  0.1667E-01
    -11.302 -0.1399E-36 -0.1389E-36  0.1667E-01  0.1667E-01
    -11.105 -0.1526E-29 -0.1516E-29  0.1667E-01  0.1667E-01
    -10.907 -0.2414E-23 -0.2400E-23  0.1667E-01  0.1667E-01
    -10.710 -0.5545E-18 -0.5517E-18  0.1667E-01  0.1667E-01
    -10.513 -0.1877E-13 -0.1869E-13  0.1667E-01  0.1667E-01
    -10.316 -0.9535E-10 -0.9503E-10  0.1667E-01  0.1667E-01
    -10.119 -0.7116E-07 -0.7099E-07  0.1667E-01  0.1667E-01
     -9.922 -0.7540E-05 -0.7528E-05  0.1667E-01  0.1667E-01
     -9.725 -0.8952E-04 -0.8948E-04  0.1665E-01  0.1665E-01
     -9.528  0.4484E-03  0.4476E-03  0.1674E-01  0.1674E-01
     -9.331  0.3406E-02  0.3404E-02  0.1741E-01  0.1741E-01
     -9.133  0.5877E-02  0.5876E-02  0.1857E-01  0.1857E-01
     -8.936  0.6441E-02  0.6441E-02  0.1984E-01  0.1983E-01
     -8.739  0.7062E-02  0.7062E-02  0.2123E-01  0.2123E-01
     -8.542  0.1060E-01  0.1060E-01  0.2332E-01  0.2332E-01
     -8.345  0.1831E-01  0.1831E-01  0.2692E-01  0.2692E-01
     -8.148  0.3007E-01  0.3007E-01  0.3285E-01  0.3285E-01
     -7.951  0.4743E-01  0.4743E-01  0.4220E-01  0.4220E-01
     -7.754  0.3732E-01  0.3732E-01  0.4956E-01  0.4956E-01
     -7.557  0.3301E-02  0.3299E-02  0.5021E-01  0.5021E-01
     -7.359 -0.1009E-02 -0.1009E-02  0.5001E-01  0.5001E-01
     -7.162 -0.4254E-04 -0.4252E-04  0.5000E-01  0.5000E-01
     -6.965 -0.1990E-06 -0.1989E-06  0.5000E-01  0.5000E-01
     -6.768 -0.1256E-09 -0.1255E-09  0.5000E-01  0.5000E-01
     -6.571 -0.1110E-13 -0.1109E-13  0.5000E-01  0.5000E-01
     -6.374  0.0000E+00  0.0000E+00  0.5000E-01  0.5000E-01
     -6.177  0.0000E+00  0.0000E+00  0.5000E-01  0.5000E-01
     -5.980  0.0000E+00  0.0000E+00  0.5000E-01  0.5000E-01
     -5.783  0.0000E+00  0.0000E+00  0.5000E-01  0.5000E-01
     -5.585  0.0000E+00  0.0000E+00  0.5000E-01  0.5000E-01
     -5.388  0.0000E+00  0.0000E+00  0.5000E-01  0.5000E-01
     -5.191  0.0000E+00  0.0000E+00  0.5000E-01  0.5000E-01
     -4.994  0.0000E+00  0.0000E+00  0.5000E-01  0.5000E-01
     -4.797  0.0000E+00  0.0000E+00  0.5000E-01  0.5000E-01
     -4.600  0.0000E+00  0.0000E+00  0.5000E-01  0.5000E-01
     -4.403  0.0000E+00  0.0000E+00  0.5000E-01  0.5000E-01
     -4.206  0.0000E+00  0.0000E+00  0.5000E-01  0.5000E-01
     -4.009  0.0000E+00  0.0000E+00  0.5000E-01  0.5000E-01
     -3.811  0.0000E+00  0.0000E+00  0.5000E-01  0.5000E-01
     -3.614  0.0000E+00  0.0000E+00  0.5000E-01  0.5000E-01
     -3.417  0.0000E+00  0.0000E+00  0.5000E-01  0.5000E-01
     -3.220  0.0000E+00  0.0000E+00  0.5000E-01  0.5000E-01
     -3.023 -0.2718E-33 -0.2636E-33  0.5000E-01  0.5000E-01
     -2.826 -0.1263E-26 -0.1229E-26  0.5000E-01  0.5000E-01
     -2.629 -0.8811E-21 -0.8605E-21  0.5000E-01  0.5000E-01
     -2.432 -0.9034E-16 -0.8852E-16  0.5000E-01  0.5000E-01
     -2.235 -0.1434E-11 -0.1410E-11  0.5000E-01  0.5000E-01
     -2.038 -0.3382E-08 -0.3339E-08  0.5000E-01  0.5000E-01
     -1.840 -0.1143E-05 -0.1132E-05  0.5000E-01  0.5000E-01
     -1.643 -0.5073E-04 -0.5047E-04  0.4999E-01  0.4999E-01
     -1.446 -0.1212E-03 -0.1220E-03  0.4997E-01  0.4997E-01
     -1.249  0.2458E-02  0.2448E-02  0.5045E-01  0.5045E-01
     -1.052  0.8535E-02  0.8526E-02  0.5213E-01  0.5213E-01
     -0.855  0.1143E-01  0.1143E-01  0.5439E-01  0.5438E-01
     -0.658  0.1392E-01  0.1392E-01  0.5713E-01  0.5712E-01
     -0.461  0.2159E-01  0.2158E-01  0.6139E-01  0.6138E-01
     -0.264  0.3483E-01  0.3482E-01  0.6825E-01  0.6824E-01
     -0.066  0.3150E-01  0.3152E-01  0.7446E-01  0.7445E-01
      0.131  0.1561E-01  0.1562E-01  0.7754E-01  0.7753E-01
      0.328  0.1439E-01  0.1438E-01  0.8037E-01  0.8037E-01
      0.525  0.1769E-01  0.1770E-01  0.8386E-01  0.8386E-01
      0.722  0.2231E-01  0.2229E-01  0.8826E-01  0.8825E-01
      0.919  0.2871E-01  0.2871E-01  0.9392E-01  0.9391E-01
      1.116  0.2705E-01  0.2706E-01  0.9925E-01  0.9924E-01
      1.313  0.2671E-01  0.2670E-01  0.1045E+00  0.1045E+00
      1.510  0.3234E-01  0.3233E-01  0.1109E+00  0.1109E+00
      1.708  0.4344E-01  0.4342E-01  0.1194E+00  0.1194E+00
      1.905  0.3891E-01  0.3895E-01  0.1271E+00  0.1271E+00
      2.102  0.2371E-01  0.2373E-01  0.1318E+00  0.1318E+00
      2.299  0.2222E-01  0.2222E-01  0.1362E+00  0.1362E+00
      2.496  0.1836E-01  0.1837E-01  0.1398E+00  0.1398E+00
      2.693  0.1645E-01  0.1645E-01  0.1430E+00  0.1430E+00
      2.890  0.1219E-01  0.1219E-01  0.1454E+00  0.1454E+00
      3.087  0.9251E-02  0.9254E-02  0.1473E+00  0.1473E+00
      3.284  0.4382E-02  0.4387E-02  0.1481E+00  0.1481E+00
      3.482  0.3980E-02  0.3979E-02  0.1489E+00  0.1489E+00
      3.679  0.3232E-02  0.3236E-02  0.1495E+00  0.1495E+00
      3.876  0.1643E-02  0.1644E-02  0.1499E+00  0.1499E+00
      4.073  0.8622E-03  0.8541E-03  0.1500E+00  0.1500E+00
      4.270  0.2600E-02  0.2569E-02  0.1506E+00  0.1505E+00
      4.467  0.7015E-02  0.6979E-02  0.1519E+00  0.1519E+00
      4.664  0.1086E-01  0.1084E-01  0.1541E+00  0.1541E+00
      4.861  0.1328E-01  0.1325E-01  0.1567E+00  0.1567E+00
      5.058  0.1933E-01  0.1926E-01  0.1605E+00  0.1605E+00
      5.256  0.2009E-01  0.2014E-01  0.1645E+00  0.1644E+00
      5.453  0.1678E-01  0.1677E-01  0.1678E+00  0.1677E+00
      5.650  0.2134E-01  0.2130E-01  0.1720E+00  0.1719E+00
      5.847  0.2546E-01  0.2540E-01  0.1770E+00  0.1769E+00
      6.044  0.3284E-01  0.3276E-01  0.1835E+00  0.1834E+00
      6.241  0.3630E-01  0.3627E-01  0.1906E+00  0.1906E+00
      6.438  0.3694E-01  0.3703E-01  0.1979E+00  0.1978E+00
      6.635  0.1130E-01  0.1156E-01  0.2001E+00  0.2001E+00
      6.832  0.7859E-02  0.7788E-02  0.2017E+00  0.2017E+00
      7.030  0.2818E-01  0.2811E-01  0.2072E+00  0.2072E+00
      7.227  0.3245E-01  0.3248E-01  0.2136E+00  0.2136E+00
      7.424  0.2800E-01  0.2802E-01  0.2192E+00  0.2191E+00
      7.621  0.2282E-01  0.2284E-01  0.2236E+00  0.2236E+00
      7.818  0.2053E-01  0.2053E-01  0.2277E+00  0.2277E+00
      8.015  0.1807E-01  0.1810E-01  0.2313E+00  0.2312E+00
      8.212  0.8692E-02  0.8729E-02  0.2330E+00  0.2330E+00
      8.409  0.2069E-02  0.2091E-02  0.2334E+00  0.2334E+00
      8.606 -0.1980E-03 -0.1967E-03  0.2333E+00  0.2333E+00
      8.804 -0.9436E-04 -0.9500E-04  0.2333E+00  0.2333E+00
      9.001  0.4883E-03  0.4849E-03  0.2334E+00  0.2334E+00
      9.198  0.2732E-02  0.2727E-02  0.2340E+00  0.2340E+00
      9.395  0.3728E-02  0.3726E-02  0.2347E+00  0.2347E+00
      9.592  0.6097E-02  0.6090E-02  0.2359E+00  0.2359E+00
      9.789  0.7612E-02  0.7609E-02  0.2374E+00  0.2374E+00
      9.986  0.1048E-01  0.1046E-01  0.2395E+00  0.2395E+00
     10.183  0.1490E-01  0.1489E-01  0.2424E+00  0.2424E+00
     10.380  0.1684E-01  0.1683E-01  0.2457E+00  0.2457E+00
     10.578  0.2062E-01  0.2062E-01  0.2498E+00  0.2498E+00
     10.775  0.1817E-01  0.1817E-01  0.2534E+00  0.2533E+00
     10.972  0.1775E-01  0.1776E-01  0.2569E+00  0.2568E+00
     11.169  0.1488E-01  0.1489E-01  0.2598E+00  0.2598E+00
     11.366  0.1237E-01  0.1237E-01  0.2622E+00  0.2622E+00
     11.563  0.1036E-01  0.1037E-01  0.2643E+00  0.2643E+00
     11.760  0.7396E-02  0.7405E-02  0.2657E+00  0.2657E+00
     11.957  0.3568E-02  0.3575E-02  0.2664E+00  0.2664E+00
     12.154  0.1141E-02  0.1145E-02  0.2667E+00  0.2667E+00
     12.352 -0.6197E-05 -0.5799E-05  0.2667E+00  0.2667E+00
     12.549  0.5087E-04  0.5077E-04  0.2667E+00  0.2667E+00
     12.746  0.9018E-05  0.9070E-05  0.2667E+00  0.2667E+00
     12.943 -0.2331E-05 -0.2336E-05  0.2667E+00  0.2667E+00
     13.140 -0.7857E-07 -0.7900E-07  0.2667E+00  0.2667E+00
     13.337 -0.2631E-09 -0.2652E-09  0.2667E+00  0.2667E+00
     13.534 -0.1117E-12 -0.1129E-12  0.2667E+00  0.2667E+00
     13.731 -0.6389E-17 -0.6461E-17  0.2667E+00  0.2667E+00
     13.928  0.0000E+00  0.0000E+00  0.2667E+00  0.2667E+00
     14.126  0.0000E+00  0.0000E+00  0.2667E+00  0.2667E+00
     14.323  0.0000E+00  0.0000E+00  0.2667E+00  0.2667E+00
     14.520  0.0000E+00  0.0000E+00  0.2667E+00  0.2667E+00
     14.717  0.0000E+00  0.0000E+00  0.2667E+00  0.2667E+00
     14.914  0.0000E+00  0.0000E+00  0.2667E+00  0.2667E+00
     15.111  0.0000E+00  0.0000E+00  0.2667E+00  0.2667E+00
     15.11106586    -44.02192699  301      4.95680275      1.00000000
    -44.022  0.0000E+00  0.0000E+00  0.0000E+00  0.0000E+00  0.0000E+00  0.0000E+00  0.0000E+00  0.0000E+00  0.0000E+00  0.0000E+00  0.0000E+00  0.0000E+00  0.0000E+00  0.0000E+00  0.0000E+00  0.0000E+00  0.0000E+00  0.0000E+00
    -43.825  0.0000E+00  0.0000E+00  0.0000E+00  0.0000E+00  0.0000E+00  0.0000E+00  0.0000E+00  0.0000E+00  0.0000E+00  0.0000E+00  0.0000E+00  0.0000E+00  0.0000E+00  0.0000E+00  0.0000E+00  0.0000E+00  0.0000E+00  0.0000E+00
    -43.628  0.0000E+00  0.0000E+00  0.0000E+00  0.0000E+00  0.0000E+00  0.0000E+00  0.0000E+00  0.0000E+00  0.0000E+00  0.0000E+00  0.0000E+00  0.0000E+00  0.0000E+00  0.0000E+00  0.0000E+00  0.0000E+00  0.0000E+00  0.0000E+00
    -43.431  0.0000E+00  0.0000E+00  0.0000E+00  0.0000E+00  0.0000E+00  0.0000E+00  0.0000E+00  0.0000E+00  0.0000E+00  0.0000E+00  0.0000E+00  0.0000E+00  0.0000E+00  0.0000E+00  0.0000E+00  0.0000E+00  0.0000E+00  0.0000E+00
    -43.233  0.0000E+00  0.0000E+00  0.0000E+00  0.0000E+00  0.0000E+00  0.0000E+00  0.0000E+00  0.0000E+00  0.0000E+00  0.0000E+00  0.0000E+00  0.0000E+00  0.0000E+00  0.0000E+00  0.0000E+00  0.0000E+00  0.0000E+00  0.0000E+00
    -43.036 -0.2677E-30 -0.2677E-30 -0.3410E-36 -0.3410E-36 -0.7757E-37 -0.7758E-37 -0.2925E-36 -0.2926E-36  0.0000E+00  0.0000E+00  0.0000E+00  0.0000E+00  0.0000E+00  0.0000E+00  0.0000E+00  0.0000E+00  0.0000E+00  0.0000E+00
    -42.839 -0.1823E-23 -0.1823E-23 -0.2318E-29 -0.2318E-29 -0.5220E-30 -0.5221E-30 -0.1991E-29 -0.1991E-29  0.0000E+00  0.0000E+00  0.0000E+00  0.0000E+00  0.0000E+00  0.0000E+00  0.0000E+00  0.0000E+00  0.0000E+00  0.0000E+00
    -42.642 -0.1750E-17 -0.1750E-17 -0.2220E-23 -0.2220E-23 -0.4951E-24 -0.4952E-24 -0.1910E-23 -0.1910E-23  0.0000E+00  0.0000E+00  0.0000E+00  0.0000E+00  0.0000E+00  0.0000E+00  0.0000E+00  0.0000E+00  0.0000E+00  0.0000E+00
    -42.445 -0.2279E-12 -0.2279E-12 -0.2886E-18 -0.2886E-18 -0.6374E-19 -0.6375E-19 -0.2486E-18 -0.2486E-18  0.0000E+00  0.0000E+00  0.0000E+00  0.0000E+00  0.0000E+00  0.0000E+00  0.0000E+00  0.0000E+00  0.0000E+00  0.0000E+00
    -42.248 -0.4193E-08 -0.4193E-08 -0.5297E-14 -0.5297E-14 -0.1159E-14 -0.1159E-14 -0.4569E-14 -0.4570E-14  0.0000E+00  0.0000E+00  0.0000E+00  0.0000E+00  0.0000E+00  0.0000E+00  0.0000E+00  0.0000E+00  0.0000E+00  0.0000E+00
    -42.051 -0.1040E-04 -0.1040E-04 -0.1311E-10 -0.1311E-10 -0.2842E-11 -0.2842E-11 -0.1132E-10 -0.1132E-10  0.0000E+00  0.0000E+00  0.0000E+00  0.0000E+00  0.0000E+00  0.0000E+00  0.0000E+00  0.0000E+00  0.0000E+00  0.0000E+00
    -41.854 -0.3280E-02 -0.3280E-02 -0.4123E-08 -0.4123E-08 -0.8855E-09 -0.8856E-09 -0.3566E-08 -0.3566E-08  0.0000E+00  0.0000E+00  0.0000E+00  0.0000E+00  0.0000E+00  0.0000E+00  0.0000E+00  0.0000E+00  0.0000E+00  0.0000E+00
    -41.657 -0.1042E+00 -0.1042E+00 -0.1305E-06 -0.1305E-06 -0.2771E-07 -0.2771E-07 -0.1131E-06 -0.1131E-06  0.0000E+00  0.0000E+00  0.0000E+00  0.0000E+00  0.0000E+00  0.0000E+00  0.0000E+00  0.0000E+00  0.0000E+00  0.0000E+00
    -41.459  0.3969E+00  0.3969E+00  0.4995E-06  0.4995E-06  0.1076E-06  0.1076E-06  0.4319E-06  0.4319E-06  0.0000E+00  0.0000E+00  0.0000E+00  0.0000E+00  0.0000E+00  0.0000E+00  0.0000E+00  0.0000E+00  0.0000E+00  0.0000E+00
    -41.262  0.3577E+01  0.3577E+01  0.4469E-05  0.4469E-05  0.9431E-06  0.9431E-06  0.3877E-05  0.3877E-05  0.0000E+00  0.0000E+00  0.0000E+00  0.0000E+00  0.0000E+00  0.0000E+00  0.0000E+00  0.0000E+00  0.0000E+00  0.0000E+00
    -41.065  0.1367E+01  0.1367E+01  0.1701E-05  0.1701E-05  0.3545E-06  0.3545E-06  0.1478E-05  0.1478E-05  0.0000E+00  0.0000E+00  0.0000E+00  0.0000E+00  0.0000E+00  0.0000E+00  0.0000E+00  0.0000E+00  0.0000E+00  0.0000E+00
    -40.868 -0.1600E+00 -0.1600E+00 -0.1997E-06 -0.1997E-06 -0.4199E-07 -0.4200E-07 -0.1733E-06 -0.1733E-06  0.0000E+00  0.0000E+00  0.0000E+00  0.0000E+00  0.0000E+00  0.0000E+00  0.0000E+00  0.0000E+00  0.0000E+00  0.0000E+00
    -40.671 -0.1344E-01 -0.1344E-01 -0.1669E-07 -0.1669E-07 -0.3463E-08 -0.3463E-08 -0.1452E-07 -0.1452E-07  0.0000E+00  0.0000E+00  0.0000E+00  0.0000E+00  0.0000E+00  0.0000E+00  0.0000E+00  0.0000E+00  0.0000E+00  0.0000E+00
    -40.474 -0.8631E-04 -0.8631E-04 -0.1068E-09 -0.1068E-09 -0.2198E-10 -0.2198E-10 -0.9302E-10 -0.9301E-10  0.0000E+00  0.0000E+00  0.0000E+00  0.0000E+00  0.0000E+00  0.0000E+00  0.0000E+00  0.0000E+00  0.0000E+00  0.0000E+00
    -40.277 -0.6771E-07 -0.6771E-07 -0.8349E-13 -0.8349E-13 -0.1707E-13 -0.1707E-13 -0.7282E-13 -0.7282E-13  0.0000E+00  0.0000E+00  0.0000E+00  0.0000E+00  0.0000E+00  0.0000E+00  0.0000E+00  0.0000E+00  0.0000E+00  0.0000E+00
    -40.080 -0.7069E-11 -0.7068E-11 -0.8686E-17 -0.8686E-17 -0.1764E-17 -0.1764E-17 -0.7586E-17 -0.7586E-17  0.0000E+00  0.0000E+00  0.0000E+00  0.0000E+00  0.0000E+00  0.0000E+00  0.0000E+00  0.0000E+00  0.0000E+00  0.0000E+00
    -39.883  0.0000E+00  0.0000E+00  0.0000E+00  0.0000E+00  0.0000E+00  0.0000E+00  0.0000E+00  0.0000E+00  0.0000E+00  0.0000E+00  0.0000E+00  0.0000E+00  0.0000E+00  0.0000E+00  0.0000E+00  0.0000E+00  0.0000E+00  0.0000E+00
    -39.686  0.0000E+00  0.0000E+00  0.0000E+00  0.0000E+00  0.0000E+00  0.0000E+00  0.0000E+00  0.0000E+00  0.0000E+00  0.0000E+00  0.0000E+00  0.0000E+00  0.0000E+00  0.0000E+00  0.0000E+00  0.0000E+00  0.0000E+00  0.0000E+00
    -39.488  0.0000E+00  0.0000E+00  0.0000E+00  0.0000E+00  0.0000E+00  0.0000E+00  0.0000E+00  0.0000E+00  0.0000E+00  0.0000E+00  0.0000E+00  0.0000E+00  0.0000E+00  0.0000E+00  0.0000E+00  0.0000E+00  0.0000E+00  0.0000E+00
    -39.291  0.0000E+00  0.0000E+00  0.0000E+00  0.0000E+00  0.0000E+00  0.0000E+00  0.0000E+00  0.0000E+00  0.0000E+00  0.0000E+00  0.0000E+00  0.0000E+00  0.0000E+00  0.0000E+00  0.0000E+00  0.0000E+00  0.0000E+00  0.0000E+00
    -39.094  0.0000E+00  0.0000E+00  0.0000E+00  0.0000E+00  0.0000E+00  0.0000E+00  0.0000E+00  0.0000E+00  0.0000E+00  0.0000E+00  0.0000E+00  0.0000E+00  0.0000E+00  0.0000E+00  0.0000E+00  0.0000E+00  0.0000E+00  0.0000E+00
    -38.897  0.0000E+00  0.0000E+00  0.0000E+00  0.0000E+00  0.0000E+00  0.0000E+00  0.0000E+00  0.0000E+00  0.0000E+00  0.0000E+00  0.0000E+00  0.0000E+00  0.0000E+00  0.0000E+00  0.0000E+00  0.0000E+00  0.0000E+00  0.0000E+00
    -38.700  0.0000E+00  0.0000E+00  0.0000E+00  0.0000E+00  0.0000E+00  0.0000E+00  0.0000E+00  0.0000E+00  0.0000E+00  0.0000E+00  0.0000E+00  0.0000E+00  0.0000E+00  0.0000E+00  0.0000E+00  0.0000E+00  0.0000E+00  0.0000E+00
    -38.503  0.0000E+00  0.0000E+00  0.0000E+00  0.0000E+00  0.0000E+00  0.0000E+00  0.0000E+00  0.0000E+00  0.0000E+00  0.0000E+00  0.0000E+00  0.0000E+00  0.0000E+00  0.0000E+00  0.0000E+00  0.0000E+00  0.0000E+00  0.0000E+00
    -38.306  0.0000E+00  0.0000E+00  0.0000E+00  0.0000E+00  0.0000E+00  0.0000E+00  0.0000E+00  0.0000E+00  0.0000E+00  0.0000E+00  0.0000E+00  0.0000E+00  0.0000E+00  0.0000E+00  0.0000E+00  0.0000E+00  0.0000E+00  0.0000E+00
    -38.109  0.0000E+00  0.0000E+00  0.0000E+00  0.0000E+00  0.0000E+00  0.0000E+00  0.0000E+00  0.0000E+00  0.0000E+00  0.0000E+00  0.0000E+00  0.0000E+00  0.0000E+00  0.0000E+00  0.0000E+00  0.0000E+00  0.0000E+00  0.0000E+00
    -37.912  0.0000E+00  0.0000E+00  0.0000E+00  0.0000E+00  0.0000E+00  0.0000E+00  0.0000E+00  0.0000E+00  0.0000E+00  0.0000E+00  0.0000E+00  0.0000E+00  0.0000E+00  0.0000E+00  0.0000E+00  0.0000E+00  0.0000E+00  0.0000E+00
    -37.714  0.0000E+00  0.0000E+00  0.0000E+00  0.0000E+00  0.0000E+00  0.0000E+00  0.0000E+00  0.0000E+00  0.0000E+00  0.0000E+00  0.0000E+00  0.0000E+00  0.0000E+00  0.0000E+00  0.0000E+00  0.0000E+00  0.0000E+00  0.0000E+00
    -37.517  0.0000E+00  0.0000E+00  0.0000E+00  0.0000E+00  0.0000E+00  0.0000E+00  0.0000E+00  0.0000E+00  0.0000E+00  0.0000E+00  0.0000E+00  0.0000E+00  0.0000E+00  0.0000E+00  0.0000E+00  0.0000E+00  0.0000E+00  0.0000E+00
    -37.320  0.0000E+00  0.0000E+00  0.0000E+00  0.0000E+00  0.0000E+00  0.0000E+00  0.0000E+00  0.0000E+00  0.0000E+00  0.0000E+00  0.0000E+00  0.0000E+00  0.0000E+00  0.0000E+00  0.0000E+00  0.0000E+00  0.0000E+00  0.0000E+00
    -37.123  0.0000E+00  0.0000E+00  0.0000E+00  0.0000E+00  0.0000E+00  0.0000E+00  0.0000E+00  0.0000E+00  0.0000E+00  0.0000E+00  0.0000E+00  0.0000E+00  0.0000E+00  0.0000E+00  0.0000E+00  0.0000E+00  0.0000E+00  0.0000E+00
    -36.926  0.0000E+00  0.0000E+00  0.0000E+00  0.0000E+00  0.0000E+00  0.0000E+00  0.0000E+00  0.0000E+00  0.0000E+00  0.0000E+00  0.0000E+00  0.0000E+00  0.0000E+00  0.0000E+00  0.0000E+00  0.0000E+00  0.0000E+00  0.0000E+00
    -36.729  0.0000E+00  0.0000E+00  0.0000E+00  0.0000E+00  0.0000E+00  0.0000E+00  0.0000E+00  0.0000E+00  0.0000E+00  0.0000E+00  0.0000E+00  0.0000E+00  0.0000E+00  0.0000E+00  0.0000E+00  0.0000E+00  0.0000E+00  0.0000E+00
    -36.532  0.0000E+00  0.0000E+00  0.0000E+00  0.0000E+00  0.0000E+00  0.0000E+00  0.0000E+00  0.0000E+00  0.0000E+00  0.0000E+00  0.0000E+00  0.0000E+00  0.0000E+00  0.0000E+00  0.0000E+00  0.0000E+00  0.0000E+00  0.0000E+00
    -36.335  0.0000E+00  0.0000E+00  0.0000E+00  0.0000E+00  0.0000E+00  0.0000E+00  0.0000E+00  0.0000E+00  0.0000E+00  0.0000E+00  0.0000E+00  0.0000E+00  0.0000E+00  0.0000E+00  0.0000E+00  0.0000E+00  0.0000E+00  0.0000E+00
    -36.138  0.0000E+00  0.0000E+00  0.0000E+00  0.0000E+00  0.0000E+00  0.0000E+00  0.0000E+00  0.0000E+00  0.0000E+00  0.0000E+00  0.0000E+00  0.0000E+00  0.0000E+00  0.0000E+00  0.0000E+00  0.0000E+00  0.0000E+00  0.0000E+00
    -35.940  0.0000E+00  0.0000E+00  0.0000E+00  0.0000E+00  0.0000E+00  0.0000E+00  0.0000E+00  0.0000E+00  0.0000E+00  0.0000E+00  0.0000E+00  0.0000E+00  0.0000E+00  0.0000E+00  0.0000E+00  0.0000E+00  0.0000E+00  0.0000E+00
    -35.743  0.0000E+00  0.0000E+00  0.0000E+00  0.0000E+00  0.0000E+00  0.0000E+00  0.0000E+00  0.0000E+00  0.0000E+00  0.0000E+00  0.0000E+00  0.0000E+00  0.0000E+00  0.0000E+00  0.0000E+00  0.0000E+00  0.0000E+00  0.0000E+00
    -35.546  0.0000E+00  0.0000E+00  0.0000E+00  0.0000E+00  0.0000E+00  0.0000E+00  0.0000E+00  0.0000E+00  0.0000E+00  0.0000E+00  0.0000E+00  0.0000E+00  0.0000E+00  0.0000E+00  0.0000E+00  0.0000E+00  0.0000E+00  0.0000E+00
    -35.349  0.0000E+00  0.0000E+00  0.0000E+00  0.0000E+00  0.0000E+00  0.0000E+00  0.0000E+00  0.0000E+00  0.0000E+00  0.0000E+00  0.0000E+00  0.0000E+00  0.0000E+00  0.0000E+00  0.0000E+00  0.0000E+00  0.0000E+00  0.0000E+00
    -35.152  0.0000E+00  0.0000E+00  0.0000E+00  0.0000E+00  0.0000E+00  0.0000E+00  0.0000E+00  0.0000E+00  0.0000E+00  0.0000E+00  0.0000E+00  0.0000E+00  0.0000E+00  0.0000E+00  0.0000E+00  0.0000E+00  0.0000E+00  0.0000E+00
    -34.955  0.0000E+00  0.0000E+00  0.0000E+00  0.0000E+00  0.0000E+00  0.0000E+00  0.0000E+00  0.0000E+00  0.0000E+00  0.0000E+00  0.0000E+00  0.0000E+00  0.0000E+00  0.0000E+00  0.0000E+00  0.0000E+00  0.0000E+00  0.0000E+00
    -34.758  0.0000E+00  0.0000E+00  0.0000E+00  0.0000E+00  0.0000E+00  0.0000E+00  0.0000E+00  0.0000E+00  0.0000E+00  0.0000E+00  0.0000E+00  0.0000E+00  0.0000E+00  0.0000E+00  0.0000E+00  0.0000E+00  0.0000E+00  0.0000E+00
    -34.561  0.0000E+00  0.0000E+00  0.0000E+00  0.0000E+00  0.0000E+00  0.0000E+00  0.0000E+00  0.0000E+00  0.0000E+00  0.0000E+00  0.0000E+00  0.0000E+00  0.0000E+00  0.0000E+00  0.0000E+00  0.0000E+00  0.0000E+00  0.0000E+00
    -34.364  0.0000E+00  0.0000E+00  0.0000E+00  0.0000E+00  0.0000E+00  0.0000E+00  0.0000E+00  0.0000E+00  0.0000E+00  0.0000E+00  0.0000E+00  0.0000E+00  0.0000E+00  0.0000E+00  0.0000E+00  0.0000E+00  0.0000E+00  0.0000E+00
    -34.166  0.0000E+00  0.0000E+00  0.0000E+00  0.0000E+00  0.0000E+00  0.0000E+00  0.0000E+00  0.0000E+00  0.0000E+00  0.0000E+00  0.0000E+00  0.0000E+00  0.0000E+00  0.0000E+00  0.0000E+00  0.0000E+00  0.0000E+00  0.0000E+00