    4    4   60    2
  0.1599035E+02  0.3457000E-09  0.3457000E-09  0.6180000E-09  0.5000000E-15
  1.000000000000000E-004
  CAR 
 unknown system                          
   19  424   16
 
  0.3742002E-15  0.3742002E-15  0.3742002E-15  0.6349206E-03
   1      -41.332048    -41.332049
   2       -9.556663     -9.556574
   3       -8.377353     -8.377364
   4       -1.367436     -1.367064
   5        1.738562      1.738974
   6        1.738657      1.739069
   7        2.976931      2.976944
   8        3.945349      3.945296
   9        3.945490      3.945437
  10        5.012654      5.014582
  11        5.090573      5.092502
  12        5.090642      5.092571
  13        7.450766      7.451362
  14        7.451017      7.451613
  15        9.653325      9.653887
  16        9.807940      9.808460
 
  0.6666667E-01  0.3747003E-15  0.3742002E-15  0.1269841E-02
   1      -41.334063    -41.334064
   2       -9.508631     -9.508545
   3       -8.355388     -8.355399
   4       -1.309603     -1.309234
   5        1.543857      1.544235
   6        1.746616      1.747017
   7        3.070345      3.070381
   8        3.539629      3.539775
   9        3.771696      3.771802
  10        5.010078      5.011999
  11        5.226556      5.228302
  12        5.238147      5.239939
  13        7.273477      7.274108
  14        7.427922      7.428521
  15        9.960126      9.960655
  16       10.028375     10.028904
 
  0.1333333E+00  0.3608225E-15  0.3742002E-15  0.1269841E-02
   1      -41.333185    -41.333186
   2       -9.368212     -9.368133
   3       -8.292568     -8.292580
   4       -1.139617     -1.139257
   5        1.137310      1.137649
   6        1.767004      1.767375
   7        2.685367      2.685626
   8        3.159150      3.159198
   9        3.424198      3.424441
  10        4.919313      4.921207
  11        5.460672      5.462358
  12        5.502846      5.504553
  13        7.049734      7.050427
  14        7.400167      7.400780
  15       10.312708     10.313237
  16       10.755983     10.756487
 
  0.2000000E+00  0.3885781E-15  0.3742002E-15  0.1269841E-02
   1      -41.331681    -41.331682
   2       -9.147102     -9.147034
   3       -8.198345     -8.198358
   4       -0.870353     -0.870005
   5        0.696825      0.697138
   6        1.737536      1.737824
   7        1.784232      1.784568
   8        2.991148      2.991226
   9        3.069849      3.070124
  10        4.771024      4.772862
  11        5.686215      5.687943
  12        5.717936      5.719660
  13        7.083977      7.084720
  14        7.431605      7.432260
  15       10.490389     10.490954
  16       11.359624     11.360077
 
  0.2666667E+00  0.3330669E-15  0.3742002E-15  0.1269841E-02
   1      -41.330020    -41.330021
   2       -8.866619     -8.866567
   3       -8.089060     -8.089075
   4       -0.529213     -0.528880
   5        0.278660      0.278963
   6        0.850528      0.850811
   7        1.779902      1.780218
   8        2.586943      2.587089
   9        2.774766      2.775008
  10        4.624600      4.626369
  11        5.860981      5.862755
  12        5.921985      5.923791
  13        7.347358      7.348136
  14        7.529892      7.530616
  15       10.339437     10.340033
  16       11.232382     11.232803
 
  0.3333333E+00  0.3608225E-15  0.3742002E-15  0.1269841E-02
   1      -41.328816    -41.328817
   2       -8.559966     -8.559933
   3       -7.988482     -7.988498
   4       -0.335263     -0.334899
   5       -0.012589     -0.012310
   6        0.239081      0.239319
   7        1.744963      1.745290
   8        2.079575      2.079792
   9        2.566164      2.566333
  10        4.514113      4.515824
  11        5.968573      5.970409
  12        6.163991      6.165900
  13        7.638339      7.639152
  14        7.648863      7.649656
  15       10.005139     10.005733
  16       10.585893     10.586271
 
  0.4000000E+00  0.4163336E-15  0.3742002E-15  0.1269841E-02
   1      -41.329336    -41.329337
   2       -8.272770     -8.272757
   3       -7.927374     -7.927390
   4       -0.800019     -0.799643
   5       -0.038148     -0.037952
   6        0.335134      0.335408
   7        1.584560      1.584830
   8        1.693390      1.693744
   9        2.443620      2.443713
  10        4.442335      4.444011
  11        6.058650      6.060544
  12        6.374578      6.376605
  13        7.743887      7.744729
  14        7.767482      7.768314
  15        9.645590      9.646125
  16       10.341237     10.341641
 
  0.4666667E+00  0.3330669E-15  0.3742002E-15  0.1269841E-02
   1      -41.327973    -41.327974
   2       -8.055113     -8.055116
   3       -7.940349     -7.940362
   4       -1.110521     -1.110138
   5       -0.148524     -0.148344
   6        0.722193      0.722430
   7        1.154618      1.154939
   8        1.656685      1.657058
   9        2.389571      2.389621
  10        4.407327      4.408987
  11        6.115235      6.117165
  12        6.496763      6.498876
  13        7.760428      7.761263
  14        7.794590      7.795457
  15        9.397074      9.397546
  16       10.464997     10.465483
 
  0.3742002E-15  0.6666667E-01  0.3742002E-15  0.2539683E-02
   1      -41.334063    -41.334064
   2       -9.508632     -9.508546
   3       -8.355387     -8.355398
   4       -1.309604     -1.309235
   5        1.543919      1.544297
   6        1.746540      1.746941
   7        3.070330      3.070365
   8        3.539748      3.539894
   9        3.771619      3.771724
  10        5.010020      5.011941
  11        5.226667      5.228412
  12        5.238067      5.239860
  13        7.273303      7.273934
  14        7.428122      7.428721
  15        9.960169      9.960699
  16       10.028335     10.028864
 
  0.6666667E-01  0.6666667E-01  0.3742002E-15  0.2539683E-02
   1      -41.332981    -41.332982
   2       -9.414379     -9.414298
   3       -8.312971     -8.312983
   4       -1.195552     -1.195189
   5        1.258897      1.259246
   6        1.753503      1.753882
   7        2.981028      2.981253
   8        3.126179      3.126249
   9        3.486421      3.486661
  10        5.014716      5.016642
  11        5.308240      5.309844
  12        5.479651      5.481401
  13        7.137996      7.138663
  14        7.342869      7.343487
  15       10.298753     10.299265
  16       10.509690     10.510215
 
  0.1333333E+00  0.6666667E-01  0.3742002E-15  0.2539683E-02
   1      -41.332183    -41.332184
   2       -9.233468     -9.233396
   3       -8.234266     -8.234279
   4       -0.975361     -0.975008
   5        0.865114      0.865437
   6        1.738225      1.738563
   7        2.166794      2.167069
   8        2.929656      2.929867
   9        3.227667      3.227853
  10        4.941925      4.943808
  11        5.467785      5.469348
  12        5.728459      5.730247
  13        7.098879      7.099591
  14        7.294288      7.294951
  15       10.651750     10.652283
  16       11.189141     11.189624
 
  0.2000000E+00  0.6666667E-01  0.3742002E-15  0.2539683E-02
   1      -41.330562    -41.330563
   2       -8.982179     -8.982121
   3       -8.131875     -8.131889
   4       -0.667062     -0.666725
   5        0.466897      0.467202
   6        1.228994      1.229281
   7        1.756804      1.757118
   8        2.594617      2.594837
   9        2.924007      2.924229
  10        4.820333      4.822131
  11        5.638490      5.640101
  12        5.953860      5.955716
  13        7.122229      7.122974
  14        7.478762      7.479502
  15       10.709944     10.710510
  16       11.560113     11.560537
 
  0.2666667E+00  0.6666667E-01  0.3742002E-15  0.2539683E-02
   1      -41.328532    -41.328533
   2       -8.687487     -8.687446
   3       -8.025378     -8.025394
   4       -0.319849     -0.319519
   5        0.083005      0.083308
   6        0.476869      0.477135
   7        1.679147      1.679456
   8        2.284500      2.284660
   9        2.523663      2.523965
  10        4.720791      4.722504
  11        5.801140      5.802824
  12        6.149137      6.151074
  13        7.232477      7.233279
  14        7.737574      7.738376
  15       10.464227     10.464803
  16       10.977102     10.977482
 
  0.3333333E+00  0.6666667E-01  0.3742002E-15  0.2539683E-02
   1      -41.328334    -41.328335
   2       -8.388970     -8.388948
   3       -7.941526     -7.941543
   4       -0.522504     -0.522135
   5        0.066108      0.066315
   6        0.166946      0.167233
   7        1.554487      1.554804
   8        1.926262      1.926499
   9        2.259345      2.259577
  10        4.654160      4.655810
  11        5.948808      5.950582
  12        6.318520      6.320538
  13        7.369268      7.370129
  14        7.876318      7.877159
  15       10.129756     10.130305
  16       10.511570     10.511944
 
  0.4000000E+00  0.6666667E-01  0.3742002E-15  0.2539683E-02
   1      -41.328116    -41.328117
   2       -8.135864     -8.135861
   3       -7.912759     -7.912775
   4       -0.947648     -0.947271
   5       -0.096667     -0.096476
   6        0.545529      0.545786
   7        1.304832      1.305143
   8        1.678335      1.678668
   9        2.146350      2.146506
  10        4.614630      4.616244
  11        6.063055      6.064910
  12        6.440274      6.442361
  13        7.490254      7.491147
  14        7.813018      7.813864
  15        9.851140      9.851628
  16       10.479235     10.479674
 
  0.4666667E+00  0.6666667E-01  0.3742002E-15  0.1269841E-02
   1      -41.328075    -41.328076
   2       -7.975682     -7.975697
   3       -7.968038     -7.968043
   4       -1.106903     -1.106521
   5       -0.145624     -0.145442
   6        0.839153      0.839324
   7        1.029897      1.030293
   8        1.620248      1.620603
   9        2.112529      2.112662
  10        4.601110      4.602713
  11        6.107766      6.109654
  12        6.483963      6.486079
  13        7.573018      7.573928
  14        7.714363      7.715199
  15        9.742042      9.742502
  16       10.569032     10.569530
 
  0.3742002E-15  0.1333333E+00  0.3742002E-15  0.2539683E-02
   1      -41.333185    -41.333186
   2       -9.368216     -9.368137
   3       -8.292565     -8.292577
   4       -1.139621     -1.139260
   5        1.137353      1.137692
   6        1.766913      1.767284
   7        2.685460      2.685720
   8        3.159140      3.159188
   9        3.424161      3.424404
  10        4.919281      4.921175
  11        5.460768      5.462453
  12        5.502734      5.504441
  13        7.049585      7.050278
  14        7.400386      7.400998
  15       10.312745     10.313275
  16       10.755970     10.756474
 
  0.6666667E-01  0.1333333E+00  0.3742002E-15  0.2539683E-02
   1      -41.332183    -41.332184
   2       -9.233471     -9.233398
   3       -8.234264     -8.234277
   4       -0.975363     -0.975011
   5        0.865126      0.865449
   6        1.738192      1.738531
   7        2.166834      2.167109
   8        2.929652      2.929863
   9        3.227632      3.227819
  10        4.941940      4.943823
  11        5.467771      5.469335
  12        5.728445      5.730233
  13        7.098709      7.099421
  14        7.294505      7.295168
  15       10.651803     10.652335
  16       11.189095     11.189577
 
  0.1333333E+00  0.1333333E+00  0.3742002E-15  0.2539683E-02
   1      -41.331241    -41.331242
   2       -9.022002     -9.021941
   3       -8.146919     -8.146933
   4       -0.714365     -0.714026
   5        0.551662      0.551971
   6        1.391654      1.391936
   7        1.786524      1.786825
   8        2.424628      2.424923
   9        3.034004      3.034198
  10        4.990588      4.992485
  11        5.502438      5.503885
  12        5.968097      5.969976
  13        7.019212      7.019945
  14        7.426397      7.427154
  15       11.076190     11.076716
  16       11.688907     11.689342
 
  0.2000000E+00  0.1333333E+00  0.3742002E-15  0.2539683E-02
   1      -41.329853    -41.329854
   2       -8.755237     -8.755191
   3       -8.045633     -8.045649
   4       -0.380846     -0.380524
   5        0.248706      0.249005
   6        0.710374      0.710661
   7        1.614651      1.614941
   8        2.027869      2.028145
   9        2.687497      2.687746
  10        4.988705      4.990522
  11        5.627579      5.629057
  12        6.178976      6.180946
  13        6.906568      6.907379
  14        7.729867      7.730675
  15       11.166730     11.167249
  16       11.496554     11.496914
 
  0.2666667E+00  0.1333333E+00  0.3742002E-15  0.2539683E-02
   1      -41.327923    -41.327924
   2       -8.466242     -8.466216
   3       -7.951894     -7.951911
   4       -0.188707     -0.188354
   5        0.050978      0.051243
   6        0.184603      0.184867
   7        1.422619      1.422918
   8        1.786160      1.786393
   9        2.248175      2.248473
  10        4.993676      4.995392
  11        5.777399      5.778974
  12        6.320154      6.322185
  13        6.942317      6.943222
  14        7.894994      7.895843
  15       10.820839     10.821280
  16       11.054174     11.054626
 
  0.3333333E+00  0.1333333E+00  0.3742002E-15  0.2539683E-02
   1      -41.326455    -41.326456
   2       -8.199477     -8.199469
   3       -7.893036     -7.893054
   4       -0.646335     -0.645970
   5       -0.021218     -0.021002
   6        0.412700      0.412965
   7        1.254938      1.255257
   8        1.631028      1.631233
   9        1.831956      1.832282
  10        4.997394      4.999037
  11        5.936862      5.938546
  12        6.386947      6.389008
  13        7.061406      7.062388
  14        7.816391      7.817242
  15       10.579216     10.579681
  16       10.785132     10.785593
 
  0.4000000E+00  0.1333333E+00  0.3742002E-15  0.2539683E-02
   1      -41.326553    -41.326554
   2       -8.002206     -8.002214
   3       -7.899850     -7.899864
   4       -0.936540     -0.936166
   5       -0.095384     -0.095186
   6        0.735000      0.735225
   7        1.106736      1.107096
   8        1.538372      1.538585
   9        1.565929      1.566242
  10        4.991802      4.993412
  11        6.063868      6.065638
  12        6.402202      6.404284
  13        7.182785      7.183784
  14        7.628828      7.629665
  15       10.527248     10.527714
  16       10.608868     10.609340
 
 -0.6666667E-01  0.1333333E+00  0.3742002E-15  0.1269841E-02
   1      -41.332981    -41.332982
   2       -9.414382     -9.414301
   3       -8.312969     -8.312981
   4       -1.195555     -1.195191
   5        1.258951      1.259299
   6        1.753407      1.753785
   7        2.981153      2.981378
   8        3.126126      3.126195
   9        3.486409      3.486649
  10        5.014648      5.016574
  11        5.308250      5.309854
  12        5.479662      5.481412
  13        7.137831      7.138498
  14        7.343067      7.343685
  15       10.298717     10.299230
  16       10.509766     10.510291
 
  0.3742002E-15  0.2000000E+00  0.3742002E-15  0.2539683E-02
   1      -41.331681    -41.331682
   2       -9.147109     -9.147042
   3       -8.198339     -8.198352
   4       -0.870360     -0.870012
   5        0.696843      0.697156
   6        1.737644      1.737932
   7        1.784119      1.784454
   8        2.991102      2.991180
   9        3.069845      3.070120
  10        4.771028      4.772866
  11        5.686288      5.688016
  12        5.717827      5.719552
  13        7.083845      7.084588
  14        7.431819      7.432474
  15       10.490449     10.491014
  16       11.359582     11.360035
 
  0.6666667E-01  0.2000000E+00  0.3742002E-15  0.2539683E-02
   1      -41.330562    -41.330563
   2       -8.982186     -8.982128
   3       -8.131870     -8.131885
   4       -0.667070     -0.666733
   5        0.466900      0.467205
   6        1.229080      1.229366
   7        1.756713      1.757027
   8        2.594630      2.594849
   9        2.923945      2.924167
  10        4.820379      4.822177
  11        5.638448      5.640059
  12        5.953861      5.955717
  13        7.122145      7.122890
  14        7.478906      7.479645
  15       10.710028     10.710594
  16       11.560084     11.560507
 
  0.1333333E+00  0.2000000E+00  0.3742002E-15  0.2539683E-02
   1      -41.329853    -41.329854
   2       -8.755241     -8.755196
   3       -8.045630     -8.045646
   4       -0.380853     -0.380531
   5        0.248709      0.249008
   6        0.710414      0.710701
   7        1.614592      1.614882
   8        2.027889      2.028165
   9        2.687462      2.687711
  10        4.988753      4.990570
  11        5.627542      5.629021
  12        6.178980      6.180951
  13        6.906566      6.907377
  14        7.729882      7.730690
  15       11.166853     11.167373
  16       11.496701     11.497060
 
  0.2000000E+00  0.2000000E+00  0.3742002E-15  0.2539683E-02
   1      -41.327180    -41.327181
   2       -8.493267     -8.493238
   3       -7.955699     -7.955716
   4       -0.038595     -0.038288
   5        0.076073      0.076365
   6        0.201321      0.201613
   7        1.375947      1.376229
   8        1.554426      1.554705
   9        2.349589      2.349860
  10        5.145620      5.147436
  11        5.716991      5.718453
  12        6.324244      6.326263
  13        6.745315      6.746233
  14        7.891837      7.892688
  15       11.191450     11.191879
  16       11.300247     11.300544
 
  0.2666667E+00  0.2000000E+00  0.3742002E-15  0.2539683E-02
   1      -41.327142    -41.327143
   2       -8.234423     -8.234413
   3       -7.882918     -7.882936
   4       -0.293368     -0.293028
   5       -0.009483     -0.009217
   6        0.328402      0.328665
   7        1.098251      1.098555
   8        1.282008      1.282263
   9        1.951730      1.952014
  10        5.284428      5.286201
  11        5.840144      5.841691
  12        6.345797      6.347738
  13        6.762095      6.763185
  14        7.805362      7.806214
  15       10.746843     10.747291
  16       11.307708     11.308047
 
  0.3333333E+00  0.2000000E+00  0.3742002E-15  0.2539683E-02
   1      -41.326997    -41.326998
   2       -8.023620     -8.023625
   3       -7.852091     -7.852109
   4       -0.636498     -0.636139
   5       -0.049880     -0.049643
   6        0.649122      0.649352
   7        0.927771      0.928121
   8        1.128894      1.129136
   9        1.578706      1.578986
  10        5.358666      5.360394
  11        5.989006      5.990665
  12        6.317407      6.319386
  13        6.858678      6.859757
  14        7.549219      7.550055
  15       10.503732     10.504213
  16       11.444952     11.445464
 
  0.4000000E+00  0.2000000E+00  0.3742002E-15  0.1269841E-02
   1      -41.325651    -41.325652
   2       -7.908953     -7.908969
   3       -7.877515     -7.877527
   4       -0.762490     -0.762123
   5       -0.056443     -0.056222
   6        0.804216      0.804432
   7        0.861201      0.861540
   8        1.126071      1.126357
   9        1.364180      1.364442
  10        5.371739      5.373450
  11        6.092342      6.094055
  12        6.280976      6.282999
  13        6.931396      6.932430
  14        7.385683      7.386511
  15       10.430753     10.431246
  16       11.420799     11.421268
 
 -0.1333333E+00  0.2000000E+00  0.3742002E-15  0.2539683E-02
   1      -41.332183    -41.332184
   2       -9.233475     -9.233403
   3       -8.234261     -8.234274
   4       -0.975367     -0.975014
   5        0.865150      0.865473
   6        1.738084      1.738422
   7        2.166940      2.167215
   8        2.929575      2.929785
   9        3.227698      3.227884
  10        4.941899      4.943782
  11        5.467772      5.469336
  12        5.728448      5.730236
  13        7.098769      7.099481
  14        7.294440      7.295103
  15       10.651764     10.652296
  16       11.189212     11.189695
 
  0.3742002E-15  0.2666667E+00  0.3742002E-15  0.2539683E-02
   1      -41.330020    -41.330021
   2       -8.866632     -8.866580
   3       -8.089051     -8.089066
   4       -0.529227     -0.528894
   5        0.278662      0.278965
   6        0.850631      0.850914
   7        1.779765      1.780082
   8        2.586887      2.587033
   9        2.774785      2.775027
  10        4.624633      4.626402
  11        5.860908      5.862683
  12        5.922036      5.923842
  13        7.347221      7.348000
  14        7.530073      7.530797
  15       10.339504     10.340101
  16       11.232525     11.232946
 
  0.6666667E-01  0.2666667E+00  0.3742002E-15  0.2539683E-02
   1      -41.328532    -41.328533
   2       -8.687499     -8.687457
   3       -8.025371     -8.025387
   4       -0.319871     -0.319540
   5        0.083031      0.083334
   6        0.476930      0.477196
   7        1.679035      1.679344
   8        2.284517      2.284677
   9        2.523604      2.523906
  10        4.720857      4.722570
  11        5.801095      5.802779
  12        6.149158      6.151095
  13        7.232453      7.233255
  14        7.737622      7.738424
  15       10.464316     10.464893
  16       10.977331     10.977712
 
  0.1333333E+00  0.2666667E+00  0.3742002E-15  0.2539683E-02
   1      -41.327923    -41.327924
   2       -8.466251     -8.466224
   3       -7.951890     -7.951907
   4       -0.188687     -0.188335
   5        0.051009      0.051273
   6        0.184592      0.184856
   7        1.422534      1.422833
   8        1.786192      1.786426
   9        2.248121      2.248419
  10        4.993751      4.995467
  11        5.777365      5.778940
  12        6.320166      6.322197
  13        6.942313      6.943218
  14        7.894980      7.895828
  15       10.821032     10.821473
  16       11.054411     11.054862
 
  0.2000000E+00  0.2666667E+00  0.3742002E-15  0.2539683E-02
   1      -41.327142    -41.327143
   2       -8.234427     -8.234416
   3       -7.882917     -7.882936
   4       -0.293295     -0.292955
   5       -0.009551     -0.009285
   6        0.328412      0.328675
   7        1.098229      1.098534
   8        1.281995      1.282251
   9        1.951716      1.952000
  10        5.284477      5.286250
  11        5.840132      5.841679
  12        6.345797      6.347738
  13        6.762087      6.763176
  14        7.805345      7.806198
  15       10.746985     10.747433
  16       11.307574     11.307902
 
  0.2666667E+00  0.2666667E+00  0.3742002E-15  0.2539683E-02
   1      -41.327755    -41.327756
   2       -8.031447     -8.031451
   3       -7.835350     -7.835370
   4       -0.401619     -0.401282
   5       -0.076856     -0.076566
   6        0.543671      0.543885
   7        0.768972      0.769318
   8        1.040529      1.040764
   9        1.611931      1.612206
  10        5.538540      5.540394
  11        5.937393      5.939007
  12        6.273064      6.274898
  13        6.726812      6.727954
  14        7.515426      7.516261
  15       10.467929     10.468413
  16       11.597305     11.597662
 
  0.3333333E+00  0.2666667E+00  0.3742002E-15  0.2539683E-02
   1      -41.326391    -41.326392
   2       -7.895033     -7.895048
   3       -7.827820     -7.827838
   4       -0.473583     -0.473229
   5       -0.045174     -0.044908
   6        0.347953      0.348253
   7        0.867118      0.867363
   8        1.034336      1.034592
   9        1.293197      1.293459
  10        5.668305      5.670208
  11        6.064578      6.066313
  12        6.200073      6.201949
  13        6.780765      6.781738
  14        7.201041      7.201865
  15       10.316915     10.317426
  16       12.035192     12.035535
 
 -0.2000000E+00  0.2666667E+00  0.3742002E-15  0.2539683E-02
   1      -41.330562    -41.330563
   2       -8.982191     -8.982133
   3       -8.131866     -8.131881
   4       -0.667073     -0.666735
   5        0.466903      0.467208
   6        1.229096      1.229383
   7        1.756673      1.756987
   8        2.594570      2.594790
   9        2.924029      2.924251
  10        4.820352      4.822149
  11        5.638464      5.640075
  12        5.953851      5.955708
  13        7.122281      7.123026
  14        7.478721      7.479460
  15       10.710023     10.710589
  16       11.560107     11.560531
 
 -0.1333333E+00  0.2666667E+00  0.3742002E-15  0.1269841E-02
   1      -41.331241    -41.331242
   2       -9.022011     -9.021950
   3       -8.146912     -8.146926
   4       -0.714370     -0.714032
   5        0.551674      0.551983
   6        1.391666      1.391948
   7        1.786502      1.786803
   8        2.424561      2.424855
   9        3.034052      3.034246
  10        4.990592      4.992488
  11        5.502408      5.503855
  12        5.968093      5.969972
  13        7.019353      7.020087
  14        7.426227      7.426983
  15       11.076152     11.076677
  16       11.689073     11.689508
 
  0.3742002E-15  0.3333333E+00  0.3742002E-15  0.2539683E-02
   1      -41.328816    -41.328817
   2       -8.559983     -8.559950
   3       -7.988472     -7.988488
   4       -0.335258     -0.334894
   5       -0.012549     -0.012270
   6        0.239097      0.239335
   7        1.744813      1.745141
   8        2.079524      2.079741
   9        2.566192      2.566362
  10        4.514168      4.515880
  11        5.968542      5.970378
  12        6.164025      6.165934
  13        7.638186      7.639000
  14        7.649007      7.649799
  15       10.005210     10.005804
  16       10.586148     10.586527
 
  0.6666667E-01  0.3333333E+00  0.3742002E-15  0.2539683E-02
   1      -41.328334    -41.328335
   2       -8.388985     -8.388963
   3       -7.941519     -7.941536
   4       -0.522439     -0.522071
   5        0.066071      0.066279
   6        0.166963      0.167250
   7        1.554386      1.554702
   8        1.926213      1.926450
   9        2.259340      2.259571
  10        4.654237      4.655888
  11        5.948786      5.950561
  12        6.318542      6.320559
  13        7.369268      7.370129
  14        7.876298      7.877139
  15       10.129853     10.130401
  16       10.511862     10.512236
 
  0.1333333E+00  0.3333333E+00  0.3742002E-15  0.2539683E-02
   1      -41.326455    -41.326456
   2       -8.199485     -8.199477
   3       -7.893035     -7.893053
   4       -0.646242     -0.645877
   5       -0.021294     -0.021077
   6        0.412717      0.412982
   7        1.254853      1.255172
   8        1.631048      1.631254
   9        1.831897      1.832223
  10        4.997482      4.999126
  11        5.936853      5.938537
  12        6.386953      6.389015
  13        7.061403      7.062385
  14        7.816344      7.817195
  15       10.579419     10.579884
  16       10.785400     10.785861
 
  0.2000000E+00  0.3333333E+00  0.3742002E-15  0.2539683E-02
   1      -41.326997    -41.326998
   2       -8.023620     -8.023625
   3       -7.852098     -7.852116
   4       -0.636395     -0.636036
   5       -0.049978     -0.049742
   6        0.649152      0.649381
   7        0.927766      0.928115
   8        1.128807      1.129049
   9        1.578708      1.578989
  10        5.358748      5.360477
  11        5.989009      5.990668
  12        6.317397      6.319376
  13        6.858662      6.859742
  14        7.549176      7.550012
  15       10.503881     10.504361
  16       11.444897     11.445337
 
  0.2666667E+00  0.3333333E+00  0.3742002E-15  0.2539683E-02
   1      -41.326391    -41.326392
   2       -7.895022     -7.895037
   3       -7.827834     -7.827853
   4       -0.473487     -0.473133
   5       -0.045276     -0.045010
   6        0.347958      0.348259
   7        0.867124      0.867369
   8        1.034284      1.034540
   9        1.293219      1.293480
  10        5.668366      5.670268
  11        6.064577      6.066313
  12        6.200063      6.201939
  13        6.780751      6.781724
  14        7.201010      7.201834
  15       10.316969     10.317480
  16       12.035141     12.035507
 
  0.3333333E+00  0.3333333E+00  0.3742002E-15  0.1269841E-02
   1      -41.327499    -41.327500
   2       -7.833799     -7.833818
   3       -7.833765     -7.833783
   4       -0.230315     -0.229933
   5       -0.039187     -0.038908
   6       -0.039091     -0.038811
   7        1.010151      1.010329
   8        1.060982      1.061260
   9        1.061149      1.061427
  10        5.821373      5.823475
  11        6.111017      6.112785
  12        6.111031      6.112799
  13        6.900024      6.900865
  14        6.900045      6.900886
  15       10.250380     10.250906
  16       12.422973     12.423203
 
 -0.2666667E+00  0.3333333E+00  0.3742002E-15  0.2539683E-02
   1      -41.328533    -41.328534
   2       -8.687503     -8.687462
   3       -8.025367     -8.025384
   4       -0.319871     -0.319541
   5        0.083028      0.083331
   6        0.476948      0.477214
   7        1.678974      1.679283
   8        2.284458      2.284619
   9        2.523703      2.524006
  10        4.720840      4.722553
  11        5.801121      5.802806
  12        6.149148      6.151085
  13        7.232545      7.233347
  14        7.737453      7.738255
  15       10.464337     10.464914
  16       10.977336     10.977716
 
 -0.2000000E+00  0.3333333E+00  0.3742002E-15  0.2539683E-02
   1      -41.329854    -41.329855
   2       -8.755251     -8.755205
   3       -8.045623     -8.045639
   4       -0.380855     -0.380533
   5        0.248697      0.248996
   6        0.710475      0.710761
   7        1.614501      1.614792
   8        2.027834      2.028109
   9        2.687535      2.687785
  10        4.988766      4.990582
  11        5.627529      5.629008
  12        6.178977      6.180947
  13        6.906659      6.907469