Automatically generated mesh
     424
Reciprocal lattice
    0.00000000000000    0.00000000000000    0.00000000000000             1
    0.06666666666667    0.00000000000000    0.00000000000000             2
    0.13333333333333    0.00000000000000    0.00000000000000             2
    0.20000000000000    0.00000000000000    0.00000000000000             2
    0.26666666666667    0.00000000000000    0.00000000000000             2
    0.33333333333333    0.00000000000000    0.00000000000000             2
    0.40000000000000    0.00000000000000    0.00000000000000             2
    0.46666666666667    0.00000000000000    0.00000000000000             2
    0.00000000000000    0.06666666666667    0.00000000000000             4
    0.06666666666667    0.06666666666667    0.00000000000000             4
    0.13333333333333    0.06666666666667    0.00000000000000             4
    0.20000000000000    0.06666666666667    0.00000000000000             4
    0.26666666666667    0.06666666666667    0.00000000000000             4
    0.33333333333333    0.06666666666667    0.00000000000000             4
    0.40000000000000    0.06666666666667    0.00000000000000             4
    0.46666666666667    0.06666666666667    0.00000000000000             2
    0.00000000000000    0.13333333333333    0.00000000000000             4
    0.06666666666667    0.13333333333333    0.00000000000000             4
    0.13333333333333    0.13333333333333    0.00000000000000             4
    0.20000000000000    0.13333333333333    0.00000000000000             4
    0.26666666666667    0.13333333333333    0.00000000000000             4
    0.33333333333333    0.13333333333333    0.00000000000000             4
    0.40000000000000    0.13333333333333    0.00000000000000             4
   -0.06666666666667    0.13333333333333    0.00000000000000             2
    0.00000000000000    0.20000000000000    0.00000000000000             4
    0.06666666666667    0.20000000000000    0.00000000000000             4
    0.13333333333333    0.20000000000000    0.00000000000000             4
    0.20000000000000    0.20000000000000    0.00000000000000             4
    0.26666666666667    0.20000000000000    0.00000000000000             4
    0.33333333333333    0.20000000000000    0.00000000000000             4
    0.40000000000000    0.20000000000000    0.00000000000000             2
   -0.13333333333333    0.20000000000000    0.00000000000000             4
    0.00000000000000    0.26666666666667    0.00000000000000             4
    0.06666666666667    0.26666666666667    0.00000000000000             4
    0.13333333333333    0.26666666666667    0.00000000000000             4
    0.20000000000000    0.26666666666667    0.00000000000000             4
    0.26666666666667    0.26666666666667    0.00000000000000             4
    0.33333333333333    0.26666666666667    0.00000000000000             4
   -0.20000000000000    0.26666666666667    0.00000000000000             4
   -0.13333333333333    0.26666666666667    0.00000000000000             2
    0.00000000000000    0.33333333333333    0.00000000000000             4
    0.06666666666667    0.33333333333333    0.00000000000000             4
    0.13333333333333    0.33333333333333    0.00000000000000             4
    0.20000000000000    0.33333333333333    0.00000000000000             4
    0.26666666666667    0.33333333333333    0.00000000000000             4
    0.33333333333333    0.33333333333333    0.00000000000000             2
   -0.26666666666667    0.33333333333333    0.00000000000000             4
   -0.20000000000000    0.33333333333333    0.00000000000000             4
    0.00000000000000    0.40000000000000    0.00000000000000             4
    0.06666666666667    0.40000000000000    0.00000000000000             4
    0.13333333333333    0.40000000000000    0.00000000000000             4
    0.20000000000000    0.40000000000000    0.00000000000000             4
    0.26666666666667    0.40000000000000    0.00000000000000             4
   -0.33333333333333    0.40000000000000    0.00000000000000             4
   -0.26666666666667    0.40000000000000    0.00000000000000             4
   -0.20000000000000    0.40000000000000    0.00000000000000             2
    0.00000000000000    0.46666666666667    0.00000000000000             4
    0.06666666666667    0.46666666666667    0.00000000000000             4
    0.13333333333333    0.46666666666667    0.00000000000000             4
    0.20000000000000    0.46666666666667    0.00000000000000             4
    0.26666666666667    0.46666666666667    0.00000000000000             2
   -0.40000000000000    0.46666666666667    0.00000000000000             4
   -0.33333333333333    0.46666666666667    0.00000000000000             4
   -0.26666666666667    0.46666666666667    0.00000000000000             4
    0.00000000000000    0.00000000000000    0.14285714285714             2
    0.06666666666667    0.00000000000000    0.14285714285714             2
    0.13333333333333    0.00000000000000    0.14285714285714             2
    0.20000000000000    0.00000000000000    0.14285714285714             2
    0.26666666666667    0.00000000000000    0.14285714285714             2
    0.33333333333333    0.00000000000000    0.14285714285714             2
    0.40000000000000    0.00000000000000    0.14285714285714             2
    0.46666666666667    0.00000000000000    0.14285714285714             2
   -0.46666666666667    0.00000000000000    0.14285714285714             2
   -0.40000000000000    0.00000000000000    0.14285714285714             2
   -0.33333333333333    0.00000000000000    0.14285714285714             2
   -0.26666666666667    0.00000000000000    0.14285714285714             2
   -0.20000000000000    0.00000000000000    0.14285714285714             2
   -0.13333333333333    0.00000000000000    0.14285714285714             2
   -0.06666666666667    0.00000000000000    0.14285714285714             2
    0.00000000000000    0.06666666666667    0.14285714285714             4
    0.06666666666667    0.06666666666667    0.14285714285714             4
    0.13333333333333    0.06666666666667    0.14285714285714             4
    0.20000000000000    0.06666666666667    0.14285714285714             4
    0.26666666666667    0.06666666666667    0.14285714285714             4
    0.33333333333333    0.06666666666667    0.14285714285714             4
    0.40000000000000    0.06666666666667    0.14285714285714             4
    0.46666666666667    0.06666666666667    0.14285714285714             4
   -0.46666666666667    0.06666666666667    0.14285714285714             4
   -0.40000000000000    0.06666666666667    0.14285714285714             4
   -0.33333333333333    0.06666666666667    0.14285714285714             4
   -0.26666666666667    0.06666666666667    0.14285714285714             4
   -0.20000000000000    0.06666666666667    0.14285714285714             4
   -0.13333333333333    0.06666666666667    0.14285714285714             4
   -0.06666666666667    0.06666666666667    0.14285714285714             4
    0.00000000000000    0.13333333333333    0.14285714285714             4
    0.06666666666667    0.13333333333333    0.14285714285714             4
    0.13333333333333    0.13333333333333    0.14285714285714             4
    0.20000000000000    0.13333333333333    0.14285714285714             4
    0.26666666666667    0.13333333333333    0.14285714285714             4
    0.33333333333333    0.13333333333333    0.14285714285714             4
    0.40000000000000    0.13333333333333    0.14285714285714             4
    0.46666666666667    0.13333333333333    0.14285714285714             4
   -0.46666666666667    0.13333333333333    0.14285714285714             4
   -0.40000000000000    0.13333333333333    0.14285714285714             4
   -0.33333333333333    0.13333333333333    0.14285714285714             4
   -0.26666666666667    0.13333333333333    0.14285714285714             4
   -0.20000000000000    0.13333333333333    0.14285714285714             4
   -0.13333333333333    0.13333333333333    0.14285714285714             4
   -0.06666666666667    0.13333333333333    0.14285714285714             4
    0.00000000000000    0.20000000000000    0.14285714285714             4
    0.06666666666667    0.20000000000000    0.14285714285714             4
    0.13333333333333    0.20000000000000    0.14285714285714             4
    0.20000000000000    0.20000000000000    0.14285714285714             4
    0.26666666666667    0.20000000000000    0.14285714285714             4
    0.33333333333333    0.20000000000000    0.14285714285714             4
    0.40000000000000    0.20000000000000    0.14285714285714             4
    0.46666666666667    0.20000000000000    0.14285714285714             4
   -0.46666666666667    0.20000000000000    0.14285714285714             4
   -0.40000000000000    0.20000000000000    0.14285714285714             4
   -0.33333333333333    0.20000000000000    0.14285714285714             4
   -0.26666666666667    0.20000000000000    0.14285714285714             4
   -0.20000000000000    0.20000000000000    0.14285714285714             4
   -0.13333333333333    0.20000000000000    0.14285714285714             4
   -0.06666666666667    0.20000000000000    0.14285714285714             4
    0.00000000000000    0.26666666666667    0.14285714285714             4
    0.06666666666667    0.26666666666667    0.14285714285714             4
    0.13333333333333    0.26666666666667    0.14285714285714             4
    0.20000000000000    0.26666666666667    0.14285714285714             4
    0.26666666666667    0.26666666666667    0.14285714285714             4
    0.33333333333333    0.26666666666667    0.14285714285714             4
    0.40000000000000    0.26666666666667    0.14285714285714             4
    0.46666666666667    0.26666666666667    0.14285714285714             4
   -0.46666666666667    0.26666666666667    0.14285714285714             4
   -0.40000000000000    0.26666666666667    0.14285714285714             4
   -0.33333333333333    0.26666666666667    0.14285714285714             4
   -0.26666666666667    0.26666666666667    0.14285714285714             4
   -0.20000000000000    0.26666666666667    0.14285714285714             4
   -0.13333333333333    0.26666666666667    0.14285714285714             4
   -0.06666666666667    0.26666666666667    0.14285714285714             4
    0.00000000000000    0.33333333333333    0.14285714285714             4
    0.06666666666667    0.33333333333333    0.14285714285714             4
    0.13333333333333    0.33333333333333    0.14285714285714             4
    0.20000000000000    0.33333333333333    0.14285714285714             4
    0.26666666666667    0.33333333333333    0.14285714285714             4
    0.33333333333333    0.33333333333333    0.14285714285714             4
    0.40000000000000    0.33333333333333    0.14285714285714             4
    0.46666666666667    0.33333333333333    0.14285714285714             4
   -0.46666666666667    0.33333333333333    0.14285714285714             4
   -0.40000000000000    0.33333333333333    0.14285714285714             4
   -0.33333333333333    0.33333333333333    0.14285714285714             4
   -0.26666666666667    0.33333333333333    0.14285714285714             4
   -0.20000000000000    0.33333333333333    0.14285714285714             4
   -0.13333333333333    0.33333333333333    0.14285714285714             4
   -0.06666666666667    0.33333333333333    0.14285714285714             4
    0.00000000000000    0.40000000000000    0.14285714285714             4
    0.06666666666667    0.40000000000000    0.14285714285714             4
    0.13333333333333    0.40000000000000    0.14285714285714             4
    0.20000000000000    0.40000000000000    0.14285714285714             4
    0.26666666666667    0.40000000000000    0.14285714285714             4
    0.33333333333333    0.40000000000000    0.14285714285714             4
    0.40000000000000    0.40000000000000    0.14285714285714             4
    0.46666666666667    0.40000000000000    0.14285714285714             4
   -0.46666666666667    0.40000000000000    0.14285714285714             4
   -0.40000000000000    0.40000000000000    0.14285714285714             4
   -0.33333333333333    0.40000000000000    0.14285714285714             4
   -0.26666666666667    0.40000000000000    0.14285714285714             4
   -0.20000000000000    0.40000000000000    0.14285714285714             4
   -0.13333333333333    0.40000000000000    0.14285714285714             4
   -0.06666666666667    0.40000000000000    0.14285714285714             4
    0.00000000000000    0.46666666666667    0.14285714285714             4
    0.06666666666667    0.46666666666667    0.14285714285714             4
    0.13333333333333    0.46666666666667    0.14285714285714             4
    0.20000000000000    0.46666666666667    0.14285714285714             4
    0.26666666666667    0.46666666666667    0.14285714285714             4
    0.33333333333333    0.46666666666667    0.14285714285714             4
    0.40000000000000    0.46666666666667    0.14285714285714             4
    0.46666666666667    0.46666666666667    0.14285714285714             4
   -0.46666666666667    0.46666666666667    0.14285714285714             4
   -0.40000000000000    0.46666666666667    0.14285714285714             4
   -0.33333333333333    0.46666666666667    0.14285714285714             4
   -0.26666666666667    0.46666666666667    0.14285714285714             4
   -0.20000000000000    0.46666666666667    0.14285714285714             4
   -0.13333333333333    0.46666666666667    0.14285714285714             4
   -0.06666666666667    0.46666666666667    0.14285714285714             4
    0.00000000000000    0.00000000000000    0.28571428571429             2
    0.06666666666667    0.00000000000000    0.28571428571429             2
    0.13333333333333    0.00000000000000    0.28571428571429             2
    0.20000000000000    0.00000000000000    0.28571428571429             2
    0.26666666666667    0.00000000000000    0.28571428571429             2
    0.33333333333333    0.00000000000000    0.28571428571429             2
    0.40000000000000    0.00000000000000    0.28571428571429             2
    0.46666666666667    0.00000000000000    0.28571428571429             2
   -0.46666666666667    0.00000000000000    0.28571428571429             2
   -0.40000000000000    0.00000000000000    0.28571428571429             2
   -0.33333333333333    0.00000000000000    0.28571428571429             2
   -0.26666666666667    0.00000000000000    0.28571428571429             2
   -0.20000000000000    0.00000000000000    0.28571428571429             2
   -0.13333333333333    0.00000000000000    0.28571428571429             2
   -0.06666666666667    0.00000000000000    0.28571428571429             2
    0.00000000000000    0.06666666666667    0.28571428571429             4
    0.06666666666667    0.06666666666667    0.28571428571429             4
    0.13333333333333    0.06666666666667    0.28571428571429             4
    0.20000000000000    0.06666666666667    0.28571428571429             4
    0.26666666666667    0.06666666666667    0.28571428571429             4
    0.33333333333333    0.06666666666667    0.28571428571429             4
    0.40000000000000    0.06666666666667    0.28571428571429             4
    0.46666666666667    0.06666666666667    0.28571428571429             4
   -0.46666666666667    0.06666666666667    0.28571428571429             4
   -0.40000000000000    0.06666666666667    0.28571428571429             4
   -0.33333333333333    0.06666666666667    0.28571428571429             4
   -0.26666666666667    0.06666666666667    0.28571428571429             4
   -0.20000000000000    0.06666666666667    0.28571428571429             4
   -0.13333333333333    0.06666666666667    0.28571428571429             4
   -0.06666666666667    0.06666666666667    0.28571428571429             4
    0.00000000000000    0.13333333333333    0.28571428571429             4
    0.06666666666667    0.13333333333333    0.28571428571429             4
    0.13333333333333    0.13333333333333    0.28571428571429             4
    0.20000000000000    0.13333333333333    0.28571428571429             4
    0.26666666666667    0.13333333333333    0.28571428571429             4
    0.33333333333333    0.13333333333333    0.28571428571429             4
    0.40000000000000    0.13333333333333    0.28571428571429             4
    0.46666666666667    0.13333333333333    0.28571428571429             4
   -0.46666666666667    0.13333333333333    0.28571428571429             4
   -0.40000000000000    0.13333333333333    0.28571428571429             4
   -0.33333333333333    0.13333333333333    0.28571428571429             4
   -0.26666666666667    0.13333333333333    0.28571428571429             4
   -0.20000000000000    0.13333333333333    0.28571428571429             4
   -0.13333333333333    0.13333333333333    0.28571428571429             4
   -0.06666666666667    0.13333333333333    0.28571428571429             4
    0.00000000000000    0.20000000000000    0.28571428571429             4
    0.06666666666667    0.20000000000000    0.28571428571429             4
    0.13333333333333    0.20000000000000    0.28571428571429             4
    0.20000000000000    0.20000000000000    0.28571428571429             4
    0.26666666666667    0.20000000000000    0.28571428571429             4
    0.33333333333333    0.20000000000000    0.28571428571429             4
    0.40000000000000    0.20000000000000    0.28571428571429             4
    0.46666666666667    0.20000000000000    0.28571428571429             4
   -0.46666666666667    0.20000000000000    0.28571428571429             4
   -0.40000000000000    0.20000000000000    0.28571428571429             4
   -0.33333333333333    0.20000000000000    0.28571428571429             4
   -0.26666666666667    0.20000000000000    0.28571428571429             4
   -0.20000000000000    0.20000000000000    0.28571428571429             4
   -0.13333333333333    0.20000000000000    0.28571428571429             4
   -0.06666666666667    0.20000000000000    0.28571428571429             4
    0.00000000000000    0.26666666666667    0.28571428571429             4
    0.06666666666667    0.26666666666667    0.28571428571429             4
    0.13333333333333    0.26666666666667    0.28571428571429             4
    0.20000000000000    0.26666666666667    0.28571428571429             4
    0.26666666666667    0.26666666666667    0.28571428571429             4
    0.33333333333333    0.26666666666667    0.28571428571429             4
    0.40000000000000    0.26666666666667    0.28571428571429             4
    0.46666666666667    0.26666666666667    0.28571428571429             4
   -0.46666666666667    0.26666666666667    0.28571428571429             4
   -0.40000000000000    0.26666666666667    0.28571428571429             4
   -0.33333333333333    0.26666666666667    0.28571428571429             4
   -0.26666666666667    0.26666666666667    0.28571428571429             4
   -0.20000000000000    0.26666666666667    0.28571428571429             4
   -0.13333333333333    0.26666666666667    0.28571428571429             4
   -0.06666666666667    0.26666666666667    0.28571428571429             4
    0.00000000000000    0.33333333333333    0.28571428571429             4
    0.06666666666667    0.33333333333333    0.28571428571429             4
    0.13333333333333    0.33333333333333    0.28571428571429             4
    0.20000000000000    0.33333333333333    0.28571428571429             4
    0.26666666666667    0.33333333333333    0.28571428571429             4
    0.33333333333333    0.33333333333333    0.28571428571429             4
    0.40000000000000    0.33333333333333    0.28571428571429             4
    0.46666666666667    0.33333333333333    0.28571428571429             4
   -0.46666666666667    0.33333333333333    0.28571428571429             4
   -0.40000000000000    0.33333333333333    0.28571428571429             4
   -0.33333333333333    0.33333333333333    0.28571428571429             4
   -0.26666666666667    0.33333333333333    0.28571428571429             4
   -0.20000000000000    0.33333333333333    0.28571428571429             4
   -0.13333333333333    0.33333333333333    0.28571428571429             4
   -0.06666666666667    0.33333333333333    0.28571428571429             4
    0.00000000000000    0.40000000000000    0.28571428571429             4
    0.06666666666667    0.40000000000000    0.28571428571429             4
    0.13333333333333    0.40000000000000    0.28571428571429             4
    0.20000000000000    0.40000000000000    0.28571428571429             4
    0.26666666666667    0.40000000000000    0.28571428571429             4
    0.33333333333333    0.40000000000000    0.28571428571429             4
    0.40000000000000    0.40000000000000    0.28571428571429             4
    0.46666666666667    0.40000000000000    0.28571428571429             4
   -0.46666666666667    0.40000000000000    0.28571428571429             4
   -0.40000000000000    0.40000000000000    0.28571428571429             4
   -0.33333333333333    0.40000000000000    0.28571428571429             4
   -0.26666666666667    0.40000000000000    0.28571428571429             4
   -0.20000000000000    0.40000000000000    0.28571428571429             4
   -0.13333333333333    0.40000000000000    0.28571428571429             4
   -0.06666666666667    0.40000000000000    0.28571428571429             4
    0.00000000000000    0.46666666666667    0.28571428571429             4
    0.06666666666667    0.46666666666667    0.28571428571429             4
    0.13333333333333    0.46666666666667    0.28571428571429             4
    0.20000000000000    0.46666666666667    0.28571428571429             4
    0.26666666666667    0.46666666666667    0.28571428571429             4
    0.33333333333333    0.46666666666667    0.28571428571429             4
    0.40000000000000    0.46666666666667    0.28571428571429             4
    0.46666666666667    0.46666666666667    0.28571428571429             4
   -0.46666666666667    0.46666666666667    0.28571428571429             4
   -0.40000000000000    0.46666666666667    0.28571428571429             4
   -0.33333333333333    0.46666666666667    0.28571428571429             4
   -0.26666666666667    0.46666666666667    0.28571428571429             4
   -0.20000000000000    0.46666666666667    0.28571428571429             4
   -0.13333333333333    0.46666666666667    0.28571428571429             4
   -0.06666666666667    0.46666666666667    0.28571428571429             4
    0.00000000000000    0.00000000000000    0.42857142857143             2
    0.06666666666667    0.00000000000000    0.42857142857143             2
    0.13333333333333    0.00000000000000    0.42857142857143             2
    0.20000000000000    0.00000000000000    0.42857142857143             2
    0.26666666666667    0.00000000000000    0.42857142857143             2
    0.33333333333333    0.00000000000000    0.42857142857143             2
    0.40000000000000    0.00000000000000    0.42857142857143             2
    0.46666666666667    0.00000000000000    0.42857142857143             2
   -0.46666666666667    0.00000000000000    0.42857142857143             2
   -0.40000000000000    0.00000000000000    0.42857142857143             2
   -0.33333333333333    0.00000000000000    0.42857142857143             2
   -0.26666666666667    0.00000000000000    0.42857142857143             2
   -0.20000000000000    0.00000000000000    0.42857142857143             2
   -0.13333333333333    0.00000000000000    0.42857142857143             2
   -0.06666666666667    0.00000000000000    0.42857142857143             2
    0.00000000000000    0.06666666666667    0.42857142857143             4
    0.06666666666667    0.06666666666667    0.42857142857143             4
    0.13333333333333    0.06666666666667    0.42857142857143             4
    0.20000000000000    0.06666666666667    0.42857142857143             4
    0.26666666666667    0.06666666666667    0.42857142857143             4
    0.33333333333333    0.06666666666667    0.42857142857143             4
    0.40000000000000    0.06666666666667    0.42857142857143             4
    0.46666666666667    0.06666666666667    0.42857142857143             4
   -0.46666666666667    0.06666666666667    0.42857142857143             4
   -0.40000000000000    0.06666666666667    0.42857142857143             4
   -0.33333333333333    0.06666666666667    0.42857142857143             4
   -0.26666666666667    0.06666666666667    0.42857142857143             4
   -0.20000000000000    0.06666666666667    0.42857142857143             4
   -0.13333333333333    0.06666666666667    0.42857142857143             4
   -0.06666666666667    0.06666666666667    0.42857142857143             4
    0.00000000000000    0.13333333333333    0.42857142857143             4
    0.06666666666667    0.13333333333333    0.42857142857143             4
    0.13333333333333    0.13333333333333    0.42857142857143             4
    0.20000000000000    0.13333333333333    0.42857142857143             4
    0.26666666666667    0.13333333333333    0.42857142857143             4
    0.33333333333333    0.13333333333333    0.42857142857143             4
    0.40000000000000    0.13333333333333    0.42857142857143             4
    0.46666666666667    0.13333333333333    0.42857142857143             4
   -0.46666666666667    0.13333333333333    0.42857142857143             4
   -0.40000000000000    0.13333333333333    0.42857142857143             4
   -0.33333333333333    0.13333333333333    0.42857142857143             4
   -0.26666666666667    0.13333333333333    0.42857142857143             4
   -0.20000000000000    0.13333333333333    0.42857142857143             4
   -0.13333333333333    0.13333333333333    0.42857142857143             4
   -0.06666666666667    0.13333333333333    0.42857142857143             4
    0.00000000000000    0.20000000000000    0.42857142857143             4
    0.06666666666667    0.20000000000000    0.42857142857143             4
    0.13333333333333    0.20000000000000    0.42857142857143             4
    0.20000000000000    0.20000000000000    0.42857142857143             4
    0.26666666666667    0.20000000000000    0.42857142857143             4
    0.33333333333333    0.20000000000000    0.42857142857143             4
    0.40000000000000    0.20000000000000    0.42857142857143             4
    0.46666666666667    0.20000000000000    0.42857142857143             4
   -0.46666666666667    0.20000000000000    0.42857142857143             4
   -0.40000000000000    0.20000000000000    0.42857142857143             4
   -0.33333333333333    0.20000000000000    0.42857142857143             4
   -0.26666666666667    0.20000000000000    0.42857142857143             4
   -0.20000000000000    0.20000000000000    0.42857142857143             4
   -0.13333333333333    0.20000000000000    0.42857142857143             4
   -0.06666666666667    0.20000000000000    0.42857142857143             4
    0.00000000000000    0.26666666666667    0.42857142857143             4
    0.06666666666667    0.26666666666667    0.42857142857143             4
    0.13333333333333    0.26666666666667    0.42857142857143             4
    0.20000000000000    0.26666666666667    0.42857142857143             4
    0.26666666666667    0.26666666666667    0.42857142857143             4
    0.33333333333333    0.26666666666667    0.42857142857143             4
    0.40000000000000    0.26666666666667    0.42857142857143             4
    0.46666666666667    0.26666666666667    0.42857142857143             4
   -0.46666666666667    0.26666666666667    0.42857142857143             4
   -0.40000000000000    0.26666666666667    0.42857142857143             4
   -0.33333333333333    0.26666666666667    0.42857142857143             4
   -0.26666666666667    0.26666666666667    0.42857142857143             4
   -0.20000000000000    0.26666666666667    0.42857142857143             4
   -0.13333333333333    0.26666666666667    0.42857142857143             4
   -0.06666666666667    0.26666666666667    0.42857142857143             4
    0.00000000000000    0.33333333333333    0.42857142857143             4
    0.06666666666667    0.33333333333333    0.42857142857143             4
    0.13333333333333    0.33333333333333    0.42857142857143             4
    0.20000000000000    0.33333333333333    0.42857142857143             4
    0.26666666666667    0.33333333333333    0.42857142857143             4
    0.33333333333333    0.33333333333333    0.42857142857143             4
    0.40000000000000    0.33333333333333    0.42857142857143             4
    0.46666666666667    0.33333333333333    0.42857142857143             4
   -0.46666666666667    0.33333333333333    0.42857142857143             4
   -0.40000000000000    0.33333333333333    0.42857142857143             4
   -0.33333333333333    0.33333333333333    0.42857142857143             4
   -0.26666666666667    0.33333333333333    0.42857142857143             4
   -0.20000000000000    0.33333333333333    0.42857142857143             4
   -0.13333333333333    0.33333333333333    0.42857142857143             4
   -0.06666666666667    0.33333333333333    0.42857142857143             4
    0.00000000000000    0.40000000000000    0.42857142857143             4
    0.06666666666667    0.40000000000000    0.42857142857143             4
    0.13333333333333    0.40000000000000    0.42857142857143             4
    0.20000000000000    0.40000000000000    0.42857142857143             4
    0.26666666666667    0.40000000000000    0.42857142857143             4