 vasp.5.3.2 13Sep12 (build Mar 19 2013 10:46:17) complex                        
  
 POSCAR found type information on POSCAR  Li S  Ti
 POSCAR found :  3 types and       4 ions
 LDA part: xc-table for Pade appr. of Perdew
 POSCAR, INCAR and KPOINTS ok, starting setup
 WARNING: small aliasing (wrap around) errors must be expected
 FFT: planning ...
 WAVECAR not read
 WARNING: chargedensity file is incomplete
 WARNING: random wavefunctions but no delay for mixing, default for NELMDL
 entering main loop
       N       E                     dE             d eps       ncg     rms          rms(c)
DAV:   1     0.777165566300E+02    0.77717E+02   -0.64384E+03 29032   0.684E+02
DAV:   2    -0.183850086459E+02   -0.96102E+02   -0.91472E+02 31912   0.180E+02
DAV:   3    -0.252572788969E+02   -0.68723E+01   -0.68225E+01 34672   0.539E+01
DAV:   4    -0.253703184269E+02   -0.11304E+00   -0.11293E+00 35744   0.806E+00
DAV:   5    -0.253730625964E+02   -0.27442E-02   -0.27440E-02 35544   0.122E+00    0.141E+01
RMM:   6    -0.235708705571E+02    0.18022E+01   -0.14593E+01 27170   0.186E+01    0.560E+00
RMM:   7    -0.234698206270E+02    0.10105E+00   -0.79729E-01 27280   0.462E+00    0.214E+00
RMM:   8    -0.234889006725E+02   -0.19080E-01   -0.51250E-01 27220   0.366E+00    0.775E-01
RMM:   9    -0.234820145969E+02    0.68861E-02   -0.67181E-02 26947   0.117E+00    0.660E-01
RMM:  10    -0.234803128025E+02    0.17018E-02   -0.13768E-02 26474   0.629E-01    0.260E-01
RMM:  11    -0.234826440784E+02   -0.23313E-02   -0.31214E-03 26437   0.266E-01    0.106E-01
RMM:  12    -0.234830512227E+02   -0.40714E-03   -0.80466E-04 23996   0.144E-01    0.113E-01
RMM:  13    -0.234836004738E+02   -0.54925E-03   -0.49042E-04 23809   0.106E-01    0.808E-02
RMM:  14    -0.234840824205E+02   -0.48195E-03   -0.52944E-04 23601   0.102E-01    0.540E-02
RMM:  15    -0.234843237195E+02   -0.24130E-03   -0.41044E-04 22028   0.899E-02    0.266E-02
RMM:  16    -0.234844429599E+02   -0.11924E-03   -0.15026E-04 17155   0.606E-02    0.317E-02
RMM:  17    -0.234845329198E+02   -0.89960E-04   -0.21277E-04 18348   0.640E-02
   1 F= -.23484533E+02 E0= -.23483748E+02  d E =-.234845E+02  mag=     0.0946
 curvature:   0.00 expect dE= 0.000E+00 dE for cont linesearch  0.000E+00
 trial: gam= 0.00000 g(F)=  0.941E-01 g(S)=  0.107E+00 ort = 0.000E+00 (trialstep = 0.100E+01)
 search vector abs. value=  0.201E+00
 bond charge predicted
       N       E                     dE             d eps       ncg     rms          rms(c)
DAV:   1    -0.237271895913E+02   -0.24275E+00   -0.96339E+00 30936   0.205E+01    0.250E+00
RMM:   2    -0.236236064872E+02    0.10358E+00   -0.10228E+00 27136   0.597E+00    0.147E+00
RMM:   3    -0.235552304441E+02    0.68376E-01   -0.96590E-02 28108   0.165E+00    0.707E-01
RMM:   4    -0.235414898224E+02    0.13741E-01   -0.45892E-02 27140   0.120E+00    0.185E-01
RMM:   5    -0.235410590420E+02    0.43078E-03   -0.41584E-03 27070   0.383E-01    0.878E-02
RMM:   6    -0.235409641906E+02    0.94851E-04   -0.86924E-04 26118   0.163E-01
   2 F= -.23540964E+02 E0= -.23540155E+02  d E =-.564313E-01  mag=     0.0311
 trial-energy change:   -0.056431  1 .order   -0.052747   -0.200614    0.095120
 step:   0.6942(harm=  0.6784)  dis= 0.03308  next Energy=   -23.555402 (dE=-0.709E-01)
 bond charge predicted
       N       E                     dE             d eps       ncg     rms          rms(c)
DAV:   1    -0.235721351873E+02   -0.31076E-01   -0.88863E-01 30752   0.638E+00    0.733E-01
RMM:   2    -0.235629370047E+02    0.91982E-02   -0.88413E-02 27139   0.179E+00    0.436E-01
RMM:   3    -0.235575862828E+02    0.53507E-02   -0.90260E-03 27462   0.491E-01    0.217E-01
RMM:   4    -0.235561860770E+02    0.14002E-02   -0.44288E-03 26298   0.341E-01    0.536E-02
RMM:   5    -0.235561108141E+02    0.75263E-04   -0.23729E-04 16742   0.121E-01
   3 F= -.23556111E+02 E0= -.23555290E+02  d E =-.715779E-01  mag=     0.0160
 curvature:  -0.34 expect dE=-0.422E-02 dE for cont linesearch -0.280E-05
 trial: gam= 0.05571 g(F)=  0.676E-02 g(S)=  0.571E-02 ort = 0.129E-02 (trialstep = 0.939E+00)
 search vector abs. value=  0.132E-01
 bond charge predicted
       N       E                     dE             d eps       ncg     rms          rms(c)
DAV:   1    -0.235690991805E+02   -0.12913E-01   -0.59321E-01 27840   0.451E+00    0.352E-01
RMM:   2    -0.235672142880E+02    0.18849E-02   -0.33600E-02 27136   0.114E+00    0.168E-01
RMM:   3    -0.235661749212E+02    0.10394E-02   -0.54530E-03 27088   0.359E-01    0.527E-02
RMM:   4    -0.235661072122E+02    0.67709E-04   -0.30179E-04 21158   0.127E-01    0.274E-02
RMM:   5    -0.235660961329E+02    0.11079E-04   -0.28835E-05 15239   0.483E-02
   4 F= -.23566096E+02 E0= -.23565254E+02  d E =-.998532E-02  mag=     0.0088
 trial-energy change:   -0.009985  1 .order   -0.009780   -0.011770   -0.007790
 step:   2.7766(harm=  2.7766)  dis= 0.04283  next Energy=   -23.573516 (dE=-0.174E-01)
 bond charge predicted
       N       E                     dE             d eps       ncg     rms          rms(c)
DAV:   1    -0.235844512075E+02   -0.18344E-01   -0.22541E+00 28424   0.878E+00    0.684E-01
RMM:   2    -0.235772036678E+02    0.72475E-02   -0.12743E-01 27136   0.222E+00    0.325E-01
RMM:   3    -0.235731371264E+02    0.40665E-02   -0.21929E-02 27966   0.711E-01    0.982E-02
RMM:   4    -0.235729049384E+02    0.23219E-03   -0.12299E-03 26200   0.240E-01    0.520E-02
RMM:   5    -0.235728561894E+02    0.48749E-04   -0.62782E-05 16683   0.624E-02
   5 F= -.23572856E+02 E0= -.23571966E+02  d E =-.167454E-01  mag=     0.0060
 curvature:  -1.47 expect dE=-0.208E-02 dE for cont linesearch -0.748E-04
 trial: gam= 0.16843 g(F)=  0.157E-03 g(S)=  0.126E-02 ort =-0.822E-03 (trialstep = 0.131E+01)
 search vector abs. value=  0.152E-02
 bond charge predicted
       N       E                     dE             d eps       ncg     rms          rms(c)
DAV:   1    -0.235747305914E+02   -0.18257E-02   -0.89761E-02 36232   0.185E+00    0.176E-01
RMM:   2    -0.235741677661E+02    0.56283E-03   -0.43147E-03 27136   0.457E-01    0.124E-01
RMM:   3    -0.235738531974E+02    0.31457E-03   -0.60678E-04 24944   0.150E-01    0.674E-02
RMM:   4    -0.235737527062E+02    0.10049E-03   -0.51222E-04 23759   0.116E-01    0.137E-02
RMM:   5    -0.235737462565E+02    0.64497E-05   -0.18789E-05 15087   0.395E-02
   6 F= -.23573746E+02 E0= -.23572901E+02  d E =-.890067E-03  mag=     0.0034
 trial-energy change:   -0.000890  1 .order   -0.000922   -0.001674   -0.000170
 step:   1.4541(harm=  1.4541)  dis= 0.00095  next Energy=   -23.573788 (dE=-0.932E-03)
 bond charge predicted
       N       E                     dE             d eps       ncg     rms          rms(c)
DAV:   1    -0.235737728292E+02   -0.20123E-04   -0.11963E-03 39584   0.216E-01    0.205E-02
RMM:   2    -0.235737645137E+02    0.83155E-05   -0.58077E-05 14226   0.550E-02    0.156E-02
RMM:   3    -0.235737610132E+02    0.35005E-05   -0.16433E-05 13700   0.325E-02    0.844E-03
RMM:   4    -0.235737593702E+02    0.16430E-05   -0.73276E-06  9717   0.165E-02    0.174E-03
RMM:   5    -0.235737592981E+02    0.72081E-07   -0.26516E-07  2392   0.111E-02
   7 F= -.23573759E+02 E0= -.23572918E+02  d E =-.903109E-03  mag=     0.0019
 curvature:  -0.86 expect dE=-0.581E-04 dE for cont linesearch -0.101E-05
 trial: gam=-0.08138 g(F)=  0.386E-04 g(S)=  0.288E-04 ort = 0.422E-04 (trialstep = 0.134E+01)
 search vector abs. value=  0.706E-04
 reached required accuracy - stopping structural energy minimisation
