unknown system                          
           1
     3.457000    0.000000    0.000000
    -1.728500    2.993850    0.000000
     0.000000    0.000000    6.180000
   Li   S    Ti
   1   2   1
unknown system                          
           1
     3.396223    0.000027   -0.000067
    -1.698088    2.941175    0.000000
    -0.000120   -0.000070    6.020500
   Li   S    Ti
   1   2   1
Direct configuration=     1
   0.00000000  0.00000000  0.50000000
   0.33340000  0.66670000  0.25000000
   0.66660000  0.33330000  0.75000000
   0.00000000  0.00000000  0.00000000
unknown system                          
           1
     3.414807    0.000019   -0.000047
    -1.707387    2.957282    0.000000
    -0.000084   -0.000048    6.069271
   Li   S    Ti
   1   2   1
Direct configuration=     2
   0.00000000  0.00000000  0.50000000
   0.33338196  0.66669098  0.24229071
   0.66661804  0.33330902  0.75770929
   0.00000000  0.00000000  0.00000000
unknown system                          
           1
     3.421104    0.000041   -0.000082
    -1.710516    2.962701    0.000000
    -0.000146   -0.000084    6.101979
   Li   S    Ti
   1   2   1
Direct configuration=     3
   0.00000000  0.00000000  0.50000000
   0.33338769  0.66669385  0.24471046
   0.66661231  0.33330615  0.75528954
   0.00000000  0.00000000  0.00000000
unknown system                          
           1
     3.433430    0.000085   -0.000152
    -1.716641    2.973310    0.000000
    -0.000269   -0.000155    6.166004
   Li   S    Ti
   1   2   1
Direct configuration=     4
   0.00000000  0.00000000  0.50000000
   0.33337362  0.66668681  0.24232461
   0.66662638  0.33331319  0.75767539
   0.00000000  0.00000000  0.00000000
unknown system                          
           1
     3.425055    0.000003   -0.000022
    -1.712525    2.966180    0.000000
    -0.000035   -0.000020    6.192970
   Li   S    Ti
   1   2   1
Direct configuration=     5
   0.00000000  0.00000000  0.50000000
   0.33334602  0.66667301  0.23767934
   0.66665398  0.33332699  0.76232066
   0.00000000  0.00000000  0.00000000
unknown system                          
           1
     3.424108   -0.000006   -0.000007
    -1.712059    2.965374    0.000000
    -0.000008   -0.000005    6.196019
   Li   S    Ti
   1   2   1
Direct configuration=     6
   0.00000000  0.00000000  0.50000000
   0.33335543  0.66667772  0.23754122
   0.66664457  0.33332228  0.76245878
   0.00000000  0.00000000  0.00000000
unknown system                          
           1
     3.424108   -0.000006   -0.000007
    -1.712059    2.965374    0.000000
    -0.000008   -0.000005    6.196019
   Li   S    Ti
   1   2   1
Direct configuration=     7
   0.00000000  0.00000000  0.50000000
   0.33335650  0.66667825  0.23752568
   0.66664350  0.33332175  0.76247432
   0.00000000  0.00000000  0.00000000
