   2   2   1   0
  0.2327788E+02  0.4037967E-09  0.4037967E-09  0.4037967E-09  0.5000000E-15
  1.000000000000000E-004
  CAR 
 unknown system                          
     14.54576168    -14.11104206  301      2.78164001      1.00000000
    -14.111  0.0000E+00  0.0000E+00
    -14.016  0.0000E+00  0.0000E+00
    -13.920  0.0000E+00  0.0000E+00
    -13.824  0.0000E+00  0.0000E+00
    -13.729 -0.5915E-29 -0.5650E-30
    -13.633 -0.1083E-25 -0.1035E-26
    -13.538 -0.1254E-22 -0.1199E-23
    -13.442 -0.9184E-20 -0.8785E-21
    -13.347 -0.4252E-17 -0.4070E-18
    -13.251 -0.1208E-14 -0.1158E-15
    -13.156 -0.2218E-12 -0.2131E-13
    -13.060 -0.2570E-10 -0.2476E-11
    -12.965 -0.1875E-08 -0.1816E-09
    -12.869 -0.8601E-07 -0.8397E-08
    -12.774 -0.2477E-05 -0.2450E-06
    -12.678 -0.4464E-04 -0.4509E-05
    -12.583 -0.5001E-03 -0.5228E-04
    -12.487 -0.3419E-02 -0.3788E-03
    -12.392 -0.1346E-01 -0.1664E-02
    -12.296 -0.2347E-01 -0.3906E-02
    -12.201  0.2800E-01 -0.1232E-02
    -12.105  0.2371E+00  0.2142E-01
    -12.010  0.5322E+00  0.7226E-01
    -11.914  0.6071E+00  0.1303E+00
    -11.818  0.3571E+00  0.1644E+00
    -11.723  0.7598E-01  0.1716E+00
    -11.627 -0.2567E-01  0.1692E+00
    -11.532 -0.2002E-01  0.1673E+00
    -11.436 -0.5332E-02  0.1667E+00
    -11.341 -0.7590E-03  0.1667E+00
    -11.245 -0.6336E-04  0.1667E+00
    -11.150 -0.3212E-05  0.1667E+00
    -11.054 -0.1005E-06  0.1667E+00
    -10.959 -0.1961E-08  0.1667E+00
    -10.863 -0.2397E-10  0.1667E+00
    -10.768 -0.1841E-12  0.1667E+00
    -10.672 -0.5068E-14  0.1667E+00
    -10.577 -0.4007E-12  0.1667E+00
    -10.481 -0.2450E-10  0.1667E+00
    -10.386 -0.9505E-09  0.1667E+00
    -10.290 -0.2330E-07  0.1667E+00
    -10.195 -0.3586E-06  0.1667E+00
    -10.099 -0.3424E-05  0.1667E+00
    -10.004 -0.1975E-04  0.1667E+00
     -9.908 -0.6388E-04  0.1667E+00
     -9.813 -0.8082E-04  0.1667E+00
     -9.717  0.1664E-03  0.1667E+00
     -9.621  0.9390E-03  0.1668E+00
     -9.526  0.2119E-02  0.1670E+00
     -9.430  0.3289E-02  0.1673E+00
     -9.335  0.4221E-02  0.1677E+00
     -9.239  0.4979E-02  0.1682E+00
     -9.144  0.5706E-02  0.1687E+00
     -9.048  0.6386E-02  0.1693E+00
     -8.953  0.7049E-02  0.1700E+00
     -8.857  0.7835E-02  0.1707E+00
     -8.762  0.8571E-02  0.1715E+00
     -8.666  0.9266E-02  0.1724E+00
     -8.571  0.1024E-01  0.1734E+00
     -8.475  0.1126E-01  0.1745E+00
     -8.380  0.1218E-01  0.1756E+00
     -8.284  0.1361E-01  0.1769E+00
     -8.189  0.1586E-01  0.1785E+00
     -8.093  0.1871E-01  0.1803E+00
     -7.998  0.2194E-01  0.1823E+00
     -7.902  0.2427E-01  0.1847E+00
     -7.807  0.2474E-01  0.1870E+00
     -7.711  0.2460E-01  0.1894E+00
     -7.615  0.2514E-01  0.1918E+00
     -7.520  0.2652E-01  0.1943E+00
     -7.424  0.2672E-01  0.1969E+00
     -7.329  0.2144E-01  0.1989E+00
     -7.233  0.1094E-01  0.2000E+00
     -7.138  0.2182E-02  0.2002E+00
     -7.042 -0.8510E-03  0.2001E+00
     -6.947 -0.6784E-03  0.2000E+00
     -6.851 -0.1950E-03  0.2000E+00
     -6.756 -0.3055E-04  0.2000E+00
     -6.660 -0.2843E-05  0.2000E+00
     -6.565 -0.1623E-06  0.2000E+00
     -6.469 -0.5771E-08  0.2000E+00
     -6.374 -0.1288E-09  0.2000E+00
     -6.278 -0.1812E-11  0.2000E+00
     -6.183 -0.1612E-13  0.2000E+00
     -6.087 -0.9153E-16  0.2000E+00
     -5.992 -0.7653E-19  0.2000E+00
     -5.896  0.0000E+00  0.2000E+00
     -5.801  0.0000E+00  0.2000E+00
     -5.705  0.0000E+00  0.2000E+00
     -5.610  0.0000E+00  0.2000E+00
     -5.514 -0.1345E-31  0.2000E+00
     -5.418 -0.2647E-28  0.2000E+00
     -5.323 -0.3253E-25  0.2000E+00
     -5.227 -0.2540E-22  0.2000E+00
     -5.132 -0.1260E-19  0.2000E+00
     -5.036 -0.3886E-17  0.2000E+00
     -4.941 -0.7724E-15  0.2000E+00
     -4.845 -0.9828E-13  0.2000E+00
     -4.750 -0.7967E-11  0.2000E+00
     -4.654 -0.4117E-09  0.2000E+00
     -4.559 -0.1357E-07  0.2000E+00
     -4.463 -0.2851E-06  0.2000E+00
     -4.368 -0.3807E-05  0.2000E+00
     -4.272 -0.3208E-04  0.2000E+00
     -4.177 -0.1671E-03  0.2000E+00
     -4.081 -0.5063E-03  0.1999E+00
     -3.986 -0.6584E-03  0.1999E+00
     -3.890  0.1088E-02  0.2000E+00
     -3.795  0.7472E-02  0.2007E+00
     -3.699  0.1974E-01  0.2026E+00
     -3.604  0.3363E-01  0.2058E+00
     -3.508  0.3992E-01  0.2096E+00
     -3.413  0.3493E-01  0.2129E+00
     -3.317  0.2516E-01  0.2153E+00
     -3.221  0.1774E-01  0.2170E+00
     -3.126  0.1429E-01  0.2184E+00
     -3.030  0.1278E-01  0.2196E+00
     -2.935  0.1124E-01  0.2207E+00
     -2.839  0.9725E-02  0.2216E+00
     -2.744  0.8833E-02  0.2225E+00
     -2.648  0.8456E-02  0.2233E+00
     -2.553  0.7965E-02  0.2240E+00
     -2.457  0.6866E-02  0.2247E+00
     -2.362  0.5874E-02  0.2253E+00
     -2.266  0.5768E-02  0.2258E+00
     -2.171  0.5884E-02  0.2264E+00
     -2.075  0.5470E-02  0.2269E+00
     -1.980  0.4778E-02  0.2273E+00
     -1.884  0.4234E-02  0.2277E+00
     -1.789  0.3978E-02  0.2281E+00
     -1.693  0.3870E-02  0.2285E+00
     -1.598  0.3687E-02  0.2288E+00
     -1.502  0.3522E-02  0.2292E+00
     -1.407  0.3362E-02  0.2295E+00
     -1.311  0.2938E-02  0.2298E+00
     -1.215  0.2357E-02  0.2300E+00
     -1.120  0.2276E-02  0.2302E+00
     -1.024  0.4012E-02  0.2306E+00
     -0.929  0.8826E-02  0.2315E+00
     -0.833  0.1561E-01  0.2329E+00
     -0.738  0.2108E-01  0.2350E+00
     -0.642  0.2298E-01  0.2372E+00
     -0.547  0.2181E-01  0.2392E+00
     -0.451  0.1968E-01  0.2411E+00
     -0.356  0.1862E-01  0.2429E+00
     -0.260  0.1891E-01  0.2447E+00
     -0.165  0.1934E-01  0.2466E+00
     -0.069  0.1978E-01  0.2484E+00
      0.026  0.2132E-01  0.2505E+00
      0.122  0.2369E-01  0.2527E+00
      0.217  0.2569E-01  0.2552E+00
      0.313  0.2718E-01  0.2578E+00
      0.408  0.2811E-01  0.2605E+00
      0.504  0.2766E-01  0.2631E+00
      0.599  0.2606E-01  0.2656E+00
      0.695  0.2525E-01  0.2680E+00
      0.790  0.2599E-01  0.2705E+00
      0.886  0.2649E-01  0.2730E+00
      0.982  0.2550E-01  0.2755E+00
      1.077  0.2395E-01  0.2778E+00
      1.173  0.2328E-01  0.2800E+00
      1.268  0.2360E-01  0.2822E+00
      1.364  0.2381E-01  0.2845E+00
      1.459  0.2332E-01  0.2867E+00
      1.555  0.2240E-01  0.2889E+00
      1.650  0.2070E-01  0.2909E+00
      1.746  0.1808E-01  0.2926E+00
      1.841  0.1515E-01  0.2940E+00
      1.937  0.1270E-01  0.2952E+00
      2.032  0.1080E-01  0.2963E+00
      2.128  0.8991E-02  0.2971E+00
      2.223  0.7550E-02  0.2979E+00
      2.319  0.6649E-02  0.2985E+00
      2.414  0.5699E-02  0.2990E+00
      2.510  0.4477E-02  0.2995E+00
      2.605  0.3142E-02  0.2998E+00
      2.701  0.1836E-02  0.2999E+00
      2.796  0.7499E-03  0.3000E+00
      2.892  0.1182E-03  0.3000E+00
      2.988 -0.5211E-04  0.3000E+00
      3.083 -0.2946E-04  0.3000E+00
      3.179 -0.8955E-05  0.3000E+00
      3.274 -0.1588E-04  0.3000E+00
      3.370 -0.4000E-04  0.3000E+00
      3.465 -0.3079E-04  0.3000E+00
      3.561  0.1656E-03  0.3000E+00
      3.656  0.5966E-03  0.3001E+00
      3.752  0.9675E-03  0.3002E+00
      3.847  0.1165E-02  0.3003E+00
      3.943  0.1696E-02  0.3004E+00
      4.038  0.2859E-02  0.3007E+00
      4.134  0.4297E-02  0.3011E+00
      4.229  0.5731E-02  0.3017E+00
      4.325  0.7289E-02  0.3024E+00
      4.420  0.9225E-02  0.3032E+00
      4.516  0.1156E-01  0.3044E+00
      4.611  0.1411E-01  0.3057E+00
      4.707  0.1687E-01  0.3073E+00
      4.802  0.1997E-01  0.3092E+00
      4.898  0.2319E-01  0.3114E+00
      4.993  0.2620E-01  0.3139E+00
      5.089  0.2905E-01  0.3167E+00
      5.185  0.3139E-01  0.3197E+00
      5.280  0.3126E-01  0.3227E+00
      5.376  0.2701E-01  0.3253E+00
      5.471  0.2093E-01  0.3273E+00
      5.567  0.1689E-01  0.3289E+00
      5.662  0.1561E-01  0.3304E+00
      5.758  0.1592E-01  0.3319E+00
      5.853  0.1712E-01  0.3335E+00
      5.949  0.1779E-01  0.3352E+00
      6.044  0.1664E-01  0.3368E+00
      6.140  0.1444E-01  0.3382E+00
      6.235  0.1219E-01  0.3394E+00
      6.331  0.1074E-01  0.3404E+00
      6.426  0.1173E-01  0.3415E+00
      6.522  0.1466E-01  0.3429E+00
      6.617  0.1648E-01  0.3445E+00
      6.713  0.1610E-01  0.3460E+00
      6.808  0.1698E-01  0.3477E+00
      6.904  0.2256E-01  0.3498E+00
      6.999  0.2941E-01  0.3526E+00
      7.095  0.3124E-01  0.3556E+00
      7.191  0.2833E-01  0.3583E+00
      7.286  0.2559E-01  0.3608E+00
      7.382  0.2481E-01  0.3631E+00
      7.477  0.2423E-01  0.3654E+00
      7.573  0.2313E-01  0.3676E+00
      7.668  0.2177E-01  0.3697E+00
      7.764  0.2003E-01  0.3716E+00
      7.859  0.1880E-01  0.3734E+00
      7.955  0.1922E-01  0.3753E+00
      8.050  0.2198E-01  0.3774E+00
      8.146  0.2732E-01  0.3800E+00
      8.241  0.3235E-01  0.3831E+00
      8.337  0.3278E-01  0.3862E+00
      8.432  0.2906E-01  0.3890E+00
      8.528  0.2486E-01  0.3914E+00
      8.623  0.2167E-01  0.3934E+00
      8.719  0.1934E-01  0.3953E+00
      8.814  0.1830E-01  0.3970E+00
      8.910  0.1865E-01  0.3988E+00
      9.005  0.1920E-01  0.4006E+00
      9.101  0.1824E-01  0.4024E+00
      9.196  0.1558E-01  0.4039E+00
      9.292  0.1279E-01  0.4051E+00
      9.388  0.1136E-01  0.4062E+00
      9.483  0.1183E-01  0.4073E+00
      9.579  0.1401E-01  0.4086E+00
      9.674  0.1698E-01  0.4103E+00
      9.770  0.1904E-01  0.4121E+00
      9.865  0.1913E-01  0.4139E+00
      9.961  0.1882E-01  0.4157E+00
     10.056  0.1913E-01  0.4175E+00
     10.152  0.1826E-01  0.4193E+00
     10.247  0.1608E-01  0.4208E+00
     10.343  0.1507E-01  0.4223E+00
     10.438  0.1552E-01  0.4237E+00
     10.534  0.1517E-01  0.4252E+00
     10.629  0.1305E-01  0.4264E+00
     10.725  0.1042E-01  0.4274E+00
     10.820  0.8355E-02  0.4282E+00
     10.916  0.6970E-02  0.4289E+00
     11.011  0.5905E-02  0.4295E+00
     11.107  0.4792E-02  0.4299E+00
     11.202  0.3812E-02  0.4303E+00
     11.298  0.3416E-02  0.4306E+00
     11.394  0.3800E-02  0.4310E+00
     11.489  0.4480E-02  0.4314E+00
     11.585  0.4505E-02  0.4318E+00
     11.680  0.3585E-02  0.4322E+00
     11.776  0.2410E-02  0.4324E+00
     11.871  0.1694E-02  0.4326E+00
     11.967  0.1568E-02  0.4327E+00
     12.062  0.1656E-02  0.4329E+00
     12.158  0.1563E-02  0.4330E+00
     12.253  0.1294E-02  0.4331E+00
     12.349  0.9990E-03  0.4332E+00
     12.444  0.6722E-03  0.4333E+00
     12.540  0.3254E-03  0.4333E+00
     12.635  0.8515E-04  0.4333E+00
     12.731 -0.5272E-05  0.4333E+00
     12.826 -0.1582E-04  0.4333E+00
     12.922 -0.7848E-05  0.4333E+00
     13.017 -0.2199E-05  0.4333E+00
     13.113 -0.3737E-06  0.4333E+00
     13.208 -0.3882E-07  0.4333E+00
     13.304 -0.2475E-08  0.4333E+00
     13.399 -0.9734E-10  0.4333E+00
     13.495 -0.2375E-11  0.4333E+00
     13.591 -0.3610E-13  0.4333E+00
     13.686 -0.3431E-15  0.4333E+00
     13.782 -0.2028E-17  0.4333E+00
     13.877  0.0000E+00  0.4333E+00
     13.973  0.0000E+00  0.4333E+00
     14.068  0.0000E+00  0.4333E+00
     14.164  0.0000E+00  0.4333E+00
     14.259  0.0000E+00  0.4333E+00
     14.355  0.0000E+00  0.4333E+00
     14.450  0.0000E+00  0.4333E+00
     14.546  0.0000E+00  0.4333E+00
     14.54576168    -14.11104206  301      2.78164001      1.00000000
    -14.111  0.0000E+00  0.0000E+00  0.0000E+00  0.0000E+00  0.0000E+00  0.0000E+00  0.0000E+00  0.0000E+00  0.0000E+00
    -14.016  0.0000E+00  0.0000E+00  0.0000E+00  0.0000E+00  0.0000E+00  0.0000E+00  0.0000E+00  0.0000E+00  0.0000E+00
    -13.920  0.0000E+00  0.0000E+00  0.0000E+00  0.0000E+00  0.0000E+00  0.0000E+00  0.0000E+00  0.0000E+00  0.0000E+00
    -13.824  0.0000E+00  0.0000E+00  0.0000E+00  0.0000E+00  0.0000E+00  0.0000E+00  0.0000E+00  0.0000E+00  0.0000E+00
    -13.729 -0.7248E-29 -0.2100E-31 -0.2190E-31 -0.1496E-31 -0.3873E-32 -0.3127E-32 -0.8160E-32 -0.3717E-32 -0.6894E-32
    -13.633 -0.1322E-25 -0.4071E-28 -0.4242E-28 -0.2942E-28 -0.7455E-29 -0.6066E-29 -0.1461E-28 -0.7164E-29 -0.1232E-28
    -13.538 -0.1525E-22 -0.4960E-25 -0.5163E-25 -0.3621E-25 -0.9038E-26 -0.7396E-26 -0.1653E-25 -0.8694E-26 -0.1391E-25
    -13.442 -0.1112E-19 -0.3841E-22 -0.3993E-22 -0.2837E-22 -0.6948E-23 -0.5725E-23 -0.1181E-22 -0.6692E-23 -0.9927E-23
    -13.347 -0.5119E-17 -0.1893E-19 -0.1965E-19 -0.1417E-19 -0.3391E-20 -0.2816E-20 -0.5335E-20 -0.3270E-20 -0.4475E-20
    -13.251 -0.1443E-14 -0.5804E-17 -0.6008E-17 -0.4419E-17 -0.1024E-17 -0.8597E-18 -0.1476E-17 -0.9896E-18 -0.1237E-17
    -13.156 -0.2627E-12 -0.1153E-14 -0.1193E-14 -0.8949E-15 -0.2006E-15 -0.1706E-15 -0.2641E-15 -0.1942E-15 -0.2210E-15
    -13.060 -0.3004E-10 -0.1473E-12 -0.1519E-12 -0.1170E-12 -0.2513E-13 -0.2172E-13 -0.2977E-13 -0.2438E-13 -0.2490E-13
    -12.965 -0.2151E-08 -0.1206E-10 -0.1240E-10 -0.9841E-11 -0.2012E-11 -0.1777E-11 -0.2114E-11 -0.1959E-11 -0.1769E-11
    -12.869 -0.9598E-07 -0.6339E-09 -0.6494E-09 -0.5340E-09 -0.1034E-09 -0.9375E-10 -0.9448E-10 -0.1010E-09 -0.7923E-10
    -12.774 -0.2649E-05 -0.2140E-07 -0.2184E-07 -0.1867E-07 -0.3418E-08 -0.3198E-08 -0.2660E-08 -0.3353E-08 -0.2241E-08
    -12.678 -0.4467E-04 -0.4623E-06 -0.4696E-06 -0.4181E-06 -0.7268E-07 -0.7037E-07 -0.4718E-07 -0.7162E-07 -0.4010E-07
    -12.583 -0.4490E-03 -0.6311E-05 -0.6382E-05 -0.5916E-05 -0.9864E-06 -0.9893E-06 -0.5271E-06 -0.9770E-06 -0.4548E-06
    -12.487 -0.2551E-02 -0.5299E-04 -0.5335E-04 -0.5137E-04 -0.8355E-05 -0.8660E-05 -0.3677E-05 -0.8317E-05 -0.3248E-05
    -12.392 -0.6936E-02 -0.2563E-03 -0.2569E-03 -0.2566E-03 -0.4164E-04 -0.4443E-04 -0.1535E-04 -0.4166E-04 -0.1404E-04
    -12.296 -0.5877E-03 -0.5746E-03 -0.5725E-03 -0.5985E-03 -0.1010E-03 -0.1110E-03 -0.3135E-04 -0.1017E-03 -0.3050E-04
    -12.201  0.4698E-01  0.2888E-03  0.2994E-03  0.2285E-03  0.1635E-04  0.1016E-04  0.1672E-04  0.1439E-04  0.9693E-05
    -12.105  0.1231E+00  0.4704E-02  0.4715E-02  0.4721E-02  0.7497E-03  0.8038E-03  0.2679E-03  0.7501E-03  0.2440E-03
    -12.010  0.1416E+00  0.1087E-01  0.1086E-01  0.1113E-01  0.1914E-02  0.2070E-02  0.6785E-03  0.1923E-02  0.6439E-03
    -11.914  0.7698E-01  0.1166E-01  0.1162E-01  0.1204E-01  0.2242E-02  0.2421E-02  0.8370E-03  0.2259E-02  0.8125E-03
    -11.818  0.1187E-01  0.5942E-02  0.5908E-02  0.6156E-02  0.1282E-02  0.1371E-02  0.5257E-03  0.1294E-02  0.5195E-03
    -11.723 -0.7184E-02  0.7557E-03  0.7464E-03  0.7812E-03  0.2375E-03  0.2454E-03  0.1245E-03  0.2405E-03  0.1267E-03
    -11.627 -0.4167E-02 -0.6115E-03 -0.6096E-03 -0.6346E-03 -0.1057E-03 -0.1162E-03 -0.3341E-04 -0.1064E-03 -0.3169E-04
    -11.532 -0.9599E-03 -0.3232E-03 -0.3214E-03 -0.3341E-03 -0.7052E-04 -0.7519E-04 -0.2943E-04 -0.7116E-04 -0.2907E-04
    -11.436 -0.1214E-03 -0.7093E-04 -0.7045E-04 -0.7295E-04 -0.1742E-04 -0.1829E-04 -0.8105E-05 -0.1759E-04 -0.8098E-05
    -11.341 -0.9180E-05 -0.8548E-05 -0.8484E-05 -0.8739E-05 -0.2324E-05 -0.2411E-05 -0.1176E-05 -0.2348E-05 -0.1185E-05
    -11.245 -0.4327E-06 -0.6089E-06 -0.6040E-06 -0.6180E-06 -0.1827E-06 -0.1874E-06 -0.9951E-07 -0.1847E-06 -0.1008E-06
    -11.150 -0.1308E-07 -0.2644E-07 -0.2621E-07 -0.2661E-07 -0.8756E-08 -0.8884E-08 -0.5093E-08 -0.8850E-08 -0.5189E-08
    -11.054 -0.2595E-09 -0.7107E-09 -0.7043E-09 -0.7086E-09 -0.2599E-09 -0.2613E-09 -0.1605E-09 -0.2627E-09 -0.1644E-09
    -10.959 -0.3443E-11 -0.1194E-10 -0.1183E-10 -0.1178E-10 -0.4825E-11 -0.4809E-11 -0.3147E-11 -0.4877E-11 -0.3237E-11
    -10.863 -0.3089E-13 -0.1261E-12 -0.1249E-12 -0.1230E-12 -0.5630E-13 -0.5571E-13 -0.3858E-13 -0.5691E-13 -0.3985E-13
    -10.768 -0.8855E-15 -0.8415E-15 -0.8329E-15 -0.8107E-15 -0.4143E-15 -0.4076E-15 -0.2969E-15 -0.4188E-15 -0.3079E-15
    -10.672 -0.1065E-12 -0.2371E-16 -0.2402E-16 -0.2332E-16 -0.2443E-17 -0.2377E-17 -0.1447E-17 -0.2469E-17 -0.1508E-17
    -10.577 -0.1024E-10 -0.2284E-14 -0.2314E-14 -0.2276E-14 -0.6174E-16 -0.6045E-16 -0.6114E-18 -0.6072E-16 -0.5282E-18
    -10.481 -0.6260E-09 -0.1585E-12 -0.1596E-12 -0.1582E-12 -0.4262E-14 -0.4211E-14 -0.4469E-16 -0.4222E-14 -0.4104E-16
    -10.386 -0.2429E-07 -0.6988E-11 -0.7006E-11 -0.6983E-11 -0.1875E-12 -0.1865E-12 -0.2119E-14 -0.1867E-12 -0.2038E-14
    -10.290 -0.5954E-06 -0.1962E-09 -0.1962E-09 -0.1962E-09 -0.5267E-11 -0.5262E-11 -0.6568E-13 -0.5263E-11 -0.6502E-13
    -10.195 -0.9166E-05 -0.3514E-08 -0.3512E-08 -0.3515E-08 -0.9474E-10 -0.9481E-10 -0.1338E-11 -0.9479E-10 -0.1341E-11
    -10.099 -0.8754E-04 -0.4013E-07 -0.4013E-07 -0.4014E-07 -0.1091E-08 -0.1091E-08 -0.1795E-10 -0.1091E-08 -0.1800E-10
    -10.004 -0.5052E-03 -0.2906E-06 -0.2907E-06 -0.2906E-06 -0.7993E-08 -0.7989E-08 -0.1581E-09 -0.7990E-08 -0.1579E-09
     -9.908 -0.1636E-02 -0.1302E-05 -0.1302E-05 -0.1302E-05 -0.3644E-07 -0.3643E-07 -0.9048E-09 -0.3643E-07 -0.9034E-09
     -9.813 -0.2077E-02 -0.3314E-05 -0.3313E-05 -0.3315E-05 -0.9601E-07 -0.9609E-07 -0.3292E-08 -0.9606E-07 -0.3299E-08
     -9.717  0.4228E-02 -0.2845E-05 -0.2852E-05 -0.2841E-05 -0.9690E-07 -0.9669E-07 -0.7021E-08 -0.9676E-07 -0.7026E-08
     -9.621  0.2398E-01  0.1053E-04  0.1054E-04  0.1053E-04  0.2528E-06  0.2535E-06 -0.4504E-08  0.2533E-06 -0.4401E-08
     -9.526  0.5424E-01  0.4903E-04  0.4909E-04  0.4901E-04  0.1337E-05  0.1334E-05  0.2502E-07  0.1335E-05  0.2482E-07
     -9.430  0.8445E-01  0.1162E-03  0.1161E-03  0.1164E-03  0.3336E-05  0.3340E-05  0.1099E-06  0.3337E-05  0.1097E-06
     -9.335  0.1088E+00  0.2048E-03  0.2049E-03  0.2054E-03  0.6163E-05  0.6191E-05  0.2729E-06  0.6167E-05  0.2757E-06
     -9.239  0.1289E+00  0.3069E-03  0.3086E-03  0.3109E-03  0.9779E-05  0.9824E-05  0.5357E-06  0.9736E-05  0.5400E-06
     -9.144  0.1486E+00  0.4196E-03  0.4212E-03  0.4344E-03  0.1412E-04  0.1437E-04  0.9071E-06  0.1404E-04  0.9229E-06
     -9.048  0.1675E+00  0.5406E-03  0.5400E-03  0.5537E-03  0.1899E-04  0.1940E-04  0.1378E-05  0.1903E-04  0.1424E-05
     -8.953  0.1863E+00  0.6942E-03  0.6759E-03  0.6416E-03  0.2509E-04  0.2415E-04  0.2017E-05  0.2555E-04  0.2011E-05
     -8.857  0.2088E+00  0.9057E-03  0.8462E-03  0.6830E-03  0.3301E-04  0.2870E-04  0.2913E-05  0.3432E-04  0.2652E-05
     -8.762  0.2305E+00  0.1109E-02  0.1051E-02  0.6723E-03  0.4159E-04  0.3338E-04  0.4041E-05  0.4344E-04  0.3300E-05
     -8.666  0.2519E+00  0.1234E-02  0.1270E-02  0.7083E-03  0.5137E-04  0.3986E-04  0.5426E-05  0.5200E-04  0.3965E-05
     -8.571  0.2815E+00  0.1324E-02  0.1465E-02  0.8786E-03  0.6362E-04  0.5075E-04  0.7069E-05  0.6125E-04  0.4756E-05
     -8.475  0.3132E+00  0.1411E-02  0.1603E-02  0.1082E-02  0.7538E-04  0.6426E-04  0.8791E-05  0.7104E-04  0.5884E-05
     -8.380  0.3433E+00  0.1485E-02  0.1685E-02  0.1262E-02  0.8702E-04  0.7709E-04  0.1043E-04  0.8281E-04  0.7348E-05
     -8.284  0.3898E+00  0.1608E-02  0.1769E-02  0.1463E-02  0.1061E-03  0.9376E-04  0.1225E-04  0.1011E-03  0.9007E-05
     -8.189  0.4619E+00  0.1807E-02  0.1893E-02  0.1618E-02  0.1344E-03  0.1205E-03  0.1456E-04  0.1296E-03  0.1107E-04
     -8.093  0.5552E+00  0.1971E-02  0.2018E-02  0.1696E-02  0.1710E-03  0.1560E-03  0.1713E-04  0.1685E-03  0.1332E-04
     -7.998  0.6633E+00  0.2070E-02  0.2118E-02  0.1801E-02  0.2117E-03  0.1911E-03  0.2021E-04  0.2080E-03  0.1581E-04
     -7.902  0.7458E+00  0.2112E-02  0.2150E-02  0.1887E-02  0.2322E-03  0.2072E-03  0.2407E-04  0.2262E-03  0.1926E-04
     -7.807  0.7735E+00  0.2039E-02  0.2070E-02  0.1814E-02  0.2197E-03  0.1935E-03  0.2863E-04  0.2150E-03  0.2355E-04
     -7.711  0.7848E+00  0.1906E-02  0.1925E-02  0.1605E-02  0.1943E-03  0.1635E-03  0.3520E-04  0.1884E-03  0.2907E-04
     -7.615  0.8204E+00  0.1741E-02  0.1722E-02  0.1328E-02  0.1686E-03  0.1312E-03  0.4651E-04  0.1567E-03  0.3822E-04
     -7.520  0.8874E+00  0.1467E-02  0.1412E-02  0.9848E-03  0.1375E-03  0.9629E-04  0.6497E-04  0.1218E-03  0.5433E-04
     -7.424  0.9144E+00  0.1045E-02  0.9821E-03  0.6097E-03  0.9630E-04  0.5895E-04  0.8243E-04  0.8437E-04  0.7158E-04
     -7.329  0.7453E+00  0.5443E-03  0.5014E-03  0.2801E-03  0.4926E-04  0.2635E-04  0.7672E-04  0.4552E-04  0.6913E-04
     -7.233  0.3848E+00  0.1519E-03  0.1357E-03  0.6675E-04  0.1326E-04  0.5974E-05  0.4318E-04  0.1412E-04  0.4010E-04
     -7.138  0.7845E-01 -0.1613E-04 -0.1735E-04 -0.1412E-04 -0.1698E-05 -0.1413E-05  0.9916E-05 -0.7173E-06  0.9602E-05
     -7.042 -0.2916E-01 -0.3222E-04 -0.3026E-04 -0.1819E-04 -0.2952E-05 -0.1710E-05 -0.2790E-05 -0.2710E-05 -0.2447E-05
     -6.947 -0.2371E-01 -0.1294E-04 -0.1189E-04 -0.6910E-05 -0.1166E-05 -0.6517E-06 -0.2552E-05 -0.1162E-05 -0.2355E-05
     -6.851 -0.6851E-02 -0.2763E-05 -0.2508E-05 -0.1439E-05 -0.2478E-06 -0.1381E-06 -0.7504E-06 -0.2564E-06 -0.6990E-06
     -6.756 -0.1076E-02 -0.3526E-06 -0.3174E-06 -0.1807E-06 -0.3164E-07 -0.1778E-07 -0.1179E-06 -0.3340E-07 -0.1102E-06
     -6.660 -0.1003E-03 -0.2785E-07 -0.2495E-07 -0.1413E-07 -0.2510E-08 -0.1429E-08 -0.1091E-07 -0.2681E-08 -0.1021E-07
     -6.565 -0.5736E-05 -0.1381E-08 -0.1235E-08 -0.6970E-09 -0.1253E-09 -0.7241E-10 -0.6161E-09 -0.1350E-09 -0.5774E-09
     -6.469 -0.2041E-06 -0.4329E-10 -0.3873E-10 -0.2183E-10 -0.3963E-11 -0.2326E-11 -0.2159E-10 -0.4300E-11 -0.2026E-10
     -6.374 -0.4559E-08 -0.8615E-12 -0.7716E-12 -0.4357E-12 -0.7960E-13 -0.4749E-13 -0.4734E-12 -0.8705E-13 -0.4456E-12
     -6.278 -0.6421E-10 -0.1091E-13 -0.9775E-14 -0.5551E-14 -0.1017E-14 -0.6167E-15 -0.6533E-14 -0.1122E-14 -0.6173E-14
     -6.183 -0.5716E-12 -0.8793E-16 -0.7880E-16 -0.4518E-16 -0.8267E-17 -0.5096E-17 -0.5690E-16 -0.9224E-17 -0.5406E-16
     -6.087 -0.3247E-14 -0.4599E-18 -0.3971E-18 -0.2355E-18 -0.4329E-19 -0.2659E-19 -0.3160E-18 -0.4815E-19 -0.3039E-18
     -5.992 -0.2734E-17 -0.1350E-22 -0.4225E-22 -0.1887E-24 -0.1299E-23 -0.9782E-27 -0.3002E-22 -0.5319E-23 -0.2622E-21
     -5.896  0.0000E+00  0.0000E+00  0.0000E+00  0.0000E+00  0.0000E+00  0.0000E+00  0.0000E+00  0.0000E+00  0.0000E+00
     -5.801  0.0000E+00  0.0000E+00  0.0000E+00  0.0000E+00  0.0000E+00  0.0000E+00  0.0000E+00  0.0000E+00  0.0000E+00
     -5.705  0.0000E+00  0.0000E+00  0.0000E+00  0.0000E+00  0.0000E+00  0.0000E+00  0.0000E+00  0.0000E+00  0.0000E+00
     -5.610  0.0000E+00  0.0000E+00  0.0000E+00  0.0000E+00  0.0000E+00  0.0000E+00  0.0000E+00  0.0000E+00  0.0000E+00
     -5.514 -0.1271E-33 -0.4042E-31 -0.3634E-31 -0.4065E-31 -0.1221E-32 -0.1361E-32 -0.1953E-36 -0.1350E-32 -0.1738E-36
     -5.418 -0.4356E-30 -0.7966E-28 -0.7115E-28 -0.8019E-28 -0.2399E-29 -0.2693E-29 -0.5430E-33 -0.2670E-29 -0.5141E-33
     -5.323 -0.6519E-27 -0.9804E-25 -0.8729E-25 -0.9849E-25 -0.2950E-26 -0.3314E-26 -0.7885E-30 -0.3293E-26 -0.7238E-30
     -5.227 -0.6235E-24 -0.7652E-22 -0.6824E-22 -0.7673E-22 -0.2312E-23 -0.2588E-23 -0.7308E-27 -0.2577E-23 -0.6558E-27
     -5.132 -0.3813E-21 -0.3790E-19 -0.3401E-19 -0.3794E-19 -0.1155E-20 -0.1283E-20 -0.4329E-24 -0.1280E-20 -0.3830E-24
     -5.036 -0.1490E-18 -0.1168E-16 -0.1061E-16 -0.1159E-16 -0.3614E-18 -0.3933E-18 -0.1636E-21 -0.3959E-18 -0.1429E-21
     -4.941 -0.3621E-16 -0.2308E-14 -0.2122E-14 -0.2299E-14 -0.7257E-16 -0.7832E-16 -0.3862E-19 -0.7856E-16 -0.3405E-19
     -4.845 -0.5766E-14 -0.2923E-12 -0.2732E-12 -0.2901E-12 -0.9386E-14 -0.9929E-14 -0.5984E-17 -0.1000E-13 -0.5319E-17
     -4.750 -0.5876E-12 -0.2361E-10 -0.2244E-10 -0.2327E-10 -0.7751E-12 -0.8009E-12 -0.5968E-15 -0.8130E-12 -0.5365E-15
     -4.654 -0.3830E-10 -0.1217E-08 -0.1176E-08 -0.1187E-08 -0.4088E-10 -0.4112E-10 -0.3841E-13 -0.4224E-10 -0.3493E-13
     -4.559 -0.1598E-08 -0.4015E-07 -0.3926E-07 -0.3844E-07 -0.1377E-08 -0.1343E-08 -0.1603E-11 -0.1407E-08 -0.1468E-11
     -4.463 -0.4274E-07 -0.8486E-06 -0.8350E-06 -0.7887E-06 -0.2962E-07 -0.2787E-07 -0.4370E-10 -0.3010E-07 -0.3992E-10
     -4.368 -0.7364E-06 -0.1149E-04 -0.1129E-04 -0.1019E-04 -0.4061E-06 -0.3652E-06 -0.7844E-09 -0.4136E-06 -0.7049E-09
     -4.272 -0.8251E-05 -0.9900E-04 -0.9640E-04 -0.8171E-04 -0.3532E-05 -0.2986E-05 -0.9367E-08 -0.3631E-05 -0.8143E-08
     -4.177 -0.6114E-04 -0.5334E-03 -0.5120E-03 -0.3948E-03 -0.1916E-04 -0.1479E-04 -0.7514E-07 -0.1997E-04 -0.6229E-07
     -4.081 -0.3049E-03 -0.1692E-02 -0.1602E-02 -0.1059E-02 -0.6114E-04 -0.4081E-04 -0.4044E-06 -0.6466E-04 -0.3185E-06
     -3.986 -0.1001E-02 -0.2381E-02 -0.2262E-02 -0.1028E-02 -0.8589E-04 -0.3952E-04 -0.1399E-05 -0.9152E-04 -0.1060E-05
     -3.890 -0.1738E-02  0.3354E-02  0.3001E-02  0.2819E-02  0.1293E-03  0.1236E-03 -0.2476E-05  0.1392E-03 -0.1843E-05
     -3.795  0.1286E-02  0.2524E-01  0.2359E-01  0.1497E-01  0.9385E-03  0.6177E-03  0.1887E-05  0.9997E-03  0.1440E-05
     -3.699  0.1614E-01  0.6638E-01  0.6363E-01  0.4014E-01  0.2391E-02  0.1506E-02  0.2310E-04  0.2512E-02  0.1767E-04
     -3.604  0.4433E-01  0.1099E+00  0.1082E+00  0.7462E-01  0.3805E-02  0.2529E-02  0.6186E-04  0.3921E-02  0.4814E-04
     -3.508  0.7024E-01  0.1261E+00  0.1273E+00  0.9704E-01  0.4200E-02  0.3055E-02  0.9169E-04  0.4229E-02  0.7251E-04
     -3.413  0.7797E-01  0.1075E+00  0.1100E+00  0.9089E-01  0.3441E-02  0.2748E-02  0.8835E-04  0.3407E-02  0.7038E-04
     -3.317  0.7055E-01  0.7675E-01  0.7832E-01  0.6797E-01  0.2352E-02  0.2017E-02  0.6326E-04  0.2320E-02  0.5021E-04
     -3.221  0.6088E-01  0.5388E-01  0.5519E-01  0.4896E-01  0.1604E-02  0.1428E-02  0.4091E-04  0.1569E-02  0.3236E-04
     -3.126  0.5679E-01  0.4297E-01  0.4441E-01  0.4051E-01  0.1260E-02  0.1168E-02  0.3052E-04  0.1227E-02  0.2352E-04
     -3.030  0.5565E-01  0.3873E-01  0.3969E-01  0.3634E-01  0.1113E-02  0.1043E-02  0.2668E-04  0.1104E-02  0.1935E-04
     -2.935  0.5237E-01  0.3460E-01  0.3570E-01  0.3106E-01  0.9953E-03  0.8744E-03  0.2188E-04  0.9762E-03  0.1603E-04
     -2.839  0.4839E-01  0.3023E-01  0.3176E-01  0.2636E-01  0.8794E-03  0.7143E-03  0.1609E-04  0.8378E-03  0.1355E-04
     -2.744  0.4675E-01  0.2801E-01  0.2869E-01  0.2407E-01  0.7875E-03  0.6359E-03  0.1290E-04  0.7755E-03  0.1220E-04
     -2.648  0.4731E-01  0.2733E-01  0.2709E-01  0.2324E-01  0.7408E-03  0.6165E-03  0.1259E-04  0.7594E-03  0.1126E-04
     -2.553  0.4651E-01  0.2554E-01  0.2633E-01  0.2161E-01  0.7258E-03  0.5733E-03  0.1216E-04  0.7009E-03  0.9774E-05
     -2.457  0.4136E-01  0.2155E-01  0.2401E-01  0.1826E-01  0.6687E-03  0.4675E-03  0.9469E-05  0.5765E-03  0.7706E-05
     -2.362  0.3669E-01  0.1814E-01  0.2102E-01  0.1599E-01  0.5872E-03  0.3923E-03  0.6410E-05  0.4746E-03  0.6240E-05
     -2.266  0.3753E-01  0.1793E-01  0.2035E-01  0.1629E-01  0.5649E-03  0.3994E-03  0.5713E-05  0.4712E-03  0.5802E-05
     -2.171  0.3948E-01  0.1901E-01  0.2061E-01  0.1626E-01  0.5641E-03  0.4047E-03  0.6656E-05  0.5098E-03  0.5452E-05
     -2.075  0.3757E-01  0.1811E-01  0.1962E-01  0.1451E-01  0.5308E-03  0.3632E-03  0.7010E-05  0.4865E-03  0.4468E-05
     -1.980  0.3349E-01  0.1516E-01  0.1843E-01  0.1246E-01  0.5053E-03  0.3073E-03  0.6003E-05  0.3919E-03  0.3197E-05
     -1.884  0.3029E-01  0.1332E-01  0.1738E-01  0.1052E-01  0.4859E-03  0.2456E-03  0.4412E-05  0.3357E-03  0.2525E-05
     -1.789  0.2912E-01  0.1436E-01  0.1563E-01  0.9029E-02  0.4323E-03  0.1946E-03  0.3256E-05  0.3808E-03  0.2792E-05
     -1.693  0.2895E-01  0.1569E-01  0.1389E-01  0.8620E-02  0.3735E-03  0.1817E-03  0.2730E-05  0.4322E-03  0.3336E-05
     -1.598  0.2808E-01  0.1510E-01  0.1278E-01  0.8770E-02  0.3373E-03  0.1937E-03  0.2463E-05  0.4150E-03  0.3280E-05
     -1.502  0.2724E-01  0.1402E-01  0.1213E-01  0.9172E-02  0.3126E-03  0.2160E-03  0.2141E-05  0.3786E-03  0.2479E-05
     -1.407  0.2650E-01  0.1272E-01  0.1146E-01  0.9720E-02  0.2911E-03  0.2445E-03  0.3341E-06  0.3381E-03  0.9961E-06
     -1.311  0.2443E-01  0.9958E-02  0.1002E-01  0.9266E-02  0.2709E-03  0.2549E-03 -0.6996E-05  0.2699E-03 -0.2788E-05
     -1.215  0.2215E-01  0.7226E-02  0.7854E-02  0.7199E-02  0.2525E-03  0.2289E-03 -0.1931E-04  0.2250E-03 -0.1121E-04
     -1.120  0.2058E-01  0.7764E-02  0.7980E-02  0.6478E-02  0.2347E-03  0.1821E-03 -0.2509E-05  0.2273E-03 -0.1232E-04
     -1.024  0.1894E-01  0.1653E-01  0.1786E-01  0.1521E-01  0.2277E-03  0.1630E-03  0.1218E-03  0.2258E-03  0.4050E-04
     -0.929  0.1902E-01  0.3925E-01  0.4365E-01  0.4031E-01  0.2669E-03  0.2298E-03  0.3863E-03  0.2415E-03  0.2013E-03
     -0.833  0.2122E-01  0.7259E-01  0.7897E-01  0.7539E-01  0.3610E-03  0.3585E-03  0.6892E-03  0.3371E-03  0.4525E-03
     -0.738  0.2241E-01  0.1024E+00  0.1066E+00  0.1036E+00  0.4739E-03  0.4690E-03  0.8850E-03  0.4924E-03  0.6705E-03
     -0.642  0.2258E-01  0.1158E+00  0.1154E+00  0.1135E+00  0.5911E-03  0.5566E-03  0.9156E-03  0.6392E-03  0.7336E-03
     -0.547  0.2266E-01  0.1115E+00  0.1106E+00  0.1070E+00  0.7065E-03  0.6300E-03  0.8188E-03  0.7284E-03  0.6713E-03
     -0.451  0.2120E-01  0.1001E+00  0.1029E+00  0.9628E-01  0.7832E-03  0.6785E-03  0.6937E-03  0.7565E-03  0.6056E-03
     -0.356  0.1914E-01  0.9387E-01  0.9800E-01  0.9471E-01  0.8267E-03  0.7469E-03  0.6423E-03  0.7836E-03  0.6009E-03
     -0.260  0.1868E-01  0.9520E-01  0.9676E-01  0.1024E+00  0.8813E-03  0.8455E-03  0.6825E-03  0.8588E-03  0.6310E-03
     -0.165  0.1917E-01  0.9833E-01  0.9733E-01  0.1084E+00  0.9404E-03  0.9275E-03  0.7505E-03  0.9433E-03  0.6320E-03
     -0.069  0.1930E-01  0.1018E+00  0.1005E+00  0.1130E+00  0.9907E-03  0.1016E-02  0.7882E-03  0.1001E-02  0.6277E-03
      0.026  0.1925E-01  0.1102E+00  0.1100E+00  0.1266E+00  0.1052E-02  0.1159E-02  0.7903E-03  0.1077E-02  0.7034E-03
      0.122  0.1942E-01  0.1243E+00  0.1242E+00  0.1454E+00  0.1131E-02  0.1290E-02  0.7901E-03  0.1183E-02  0.7969E-03
      0.217  0.1891E-01  0.1385E+00  0.1393E+00  0.1589E+00  0.1245E-02  0.1353E-02  0.8251E-03  0.1273E-02  0.7823E-03
      0.313  0.1733E-01  0.1474E+00  0.1532E+00  0.1710E+00  0.1404E-02  0.1446E-02  0.8805E-03  0.1345E-02  0.7224E-03
      0.408  0.1567E-01  0.1513E+00  0.1593E+00  0.1852E+00  0.1520E-02  0.1609E-02  0.8895E-03  0.1410E-02  0.7552E-03
      0.504  0.1434E-01  0.1530E+00  0.1500E+00  0.1914E+00  0.1477E-02  0.1706E-02  0.8370E-03  0.1445E-02  0.8447E-03
      0.599  0.1277E-01  0.1553E+00  0.1322E+00  0.1850E+00  0.1342E-02  0.1695E-02  0.7859E-03  0.1474E-02  0.8588E-03
      0.695  0.1150E-01  0.1598E+00  0.1282E+00  0.1773E+00  0.1355E-02  0.1708E-02  0.7807E-03  0.1563E-02  0.8139E-03
      0.790  0.1198E-01  0.1633E+00  0.1454E+00  0.1764E+00  0.1589E-02  0.1799E-02  0.8019E-03  0.1697E-02  0.8108E-03