    2    2   60    1
  0.2327788E+02  0.4037967E-09  0.4037967E-09  0.4037967E-09  0.5000000E-15
  1.000000000000000E-004
  CAR 
 unknown system                          
   18  852   13
 
  0.3742002E-15  0.3742002E-15  0.3742002E-15  0.2469136E-03
   1      -12.017568
   2      -12.017563
   3      -12.017553
   4      -11.949081
   5      -11.949080
   6       -9.674849
   7        2.725690
   8        2.725694
   9        2.725739
  10        2.959240
  11        6.437310
  12        6.437331
  13        6.437337
 
  0.6666667E-01  0.3816392E-15  0.3747003E-15  0.9876543E-03
   1      -12.020717
   2      -12.016648
   3      -12.016642
   4      -11.949100
   5      -11.949099
   6       -9.625673
   7        1.750002
   8        2.656425
   9        2.656430
  10        3.724258
  11        6.510805
  12        6.541769
  13        6.541775
 
  0.1333333E+00  0.3608225E-15  0.3747003E-15  0.9876543E-03
   1      -12.029012
   2      -12.013942
   3      -12.013937
   4      -11.948693
   5      -11.948692
   6       -9.480765
   7        0.606220
   8        2.479325
   9        2.479329
  10        4.158295
  11        6.803612
  12        6.803616
  13        6.912070
 
  0.2000000E+00  0.3747003E-15  0.3608225E-15  0.9876543E-03
   1      -12.041418
   2      -12.010386
   3      -12.010382
   4      -11.948738
   5      -11.948737
   6       -9.248647
   7       -0.520770
   8        2.255485
   9        2.255489
  10        4.166644
  11        7.100634
  12        7.100637
  13        7.723426
 
  0.2666667E+00  0.4163336E-15  0.3330669E-15  0.9876543E-03
   1      -12.055107
   2      -12.006675
   3      -12.006671
   4      -11.948042
   5      -11.948041
   6       -8.945946
   7       -1.572494
   8        2.036035
   9        2.036040
  10        4.006519
  11        7.307730
  12        7.307738
  13        8.741991
 
  0.3333333E+00  0.3885781E-15  0.3608225E-15  0.1975309E-02
   1      -12.067411
   2      -12.003025
   3      -12.003020
   4      -11.946660
   5      -11.946659
   6       -8.603659
   7       -2.493246
   8        1.852710
   9        1.852715
  10        3.832622
  11        7.379650
  12        7.379660
  13        9.761042
 
  0.4000000E+00  0.3608225E-15  0.3885781E-15  0.9876543E-03
   1      -12.076772
   2      -12.001106
   3      -12.001101
   4      -11.945900
   5      -11.945899
   6       -8.279514
   7       -3.210228
   8        1.723102
   9        1.723107
  10        3.701345
  11        7.367378
  12        7.367386
  13       10.351995
 
  0.4666667E+00  0.3330669E-15  0.4163336E-15  0.9876543E-03
   1      -12.081282
   2      -12.000279
   3      -12.000275
   4      -11.944979
   5      -11.944978
   6       -8.068877
   7       -3.619272
   8        1.656367
   9        1.656372
  10        3.632503
  11        7.341756
  12        7.341765
  13       10.427399
 
  0.3742002E-15  0.5555556E-01  0.3742002E-15  0.4938272E-03
   1      -12.021225
   2      -12.016329
   3      -12.016321
   4      -11.949479
   5      -11.948744
   6       -9.629253
   7        1.871095
   8        2.579067
   9        2.579098
  10        3.804223
  11        6.272943
  12        6.641945
  13        6.641956
 
  0.6666667E-01  0.5555556E-01  0.3747003E-15  0.9876543E-03
   1      -12.027584
   2      -12.014360
   3      -12.013979
   4      -11.949838
   5      -11.948332
   6       -9.526589
   7        0.991537
   8        2.374710
   9        2.451582
  10        4.323133
  11        6.230597
  12        6.941599
  13        6.980825
 
  0.1333333E+00  0.5555556E-01  0.3747003E-15  0.9876543E-03
   1      -12.038049
   2      -12.011510
   3      -12.010346
   4      -11.949943
   5      -11.947618
   6       -9.332472
   7       -0.081389
   8        2.136306
   9        2.258280
  10        4.494286
  11        6.493845
  12        7.285736
  13        7.554103
 
  0.2000000E+00  0.5555556E-01  0.3608225E-15  0.9876543E-03
   1      -12.050375
   2      -12.007963
   3      -12.006483
   4      -11.949824
   5      -11.946949
   6       -9.059433
   7       -1.141118
   8        1.913631
   9        2.012754
  10        4.393100
  11        6.861093
  12        7.544317
  13        8.307769
 
  0.2666667E+00  0.5555556E-01  0.3330669E-15  0.9876543E-03
   1      -12.063581
   2      -12.004648
   3      -12.003008
   4      -11.949341
   5      -11.946145
   6       -8.730908
   7       -2.109859
   8        1.736746
   9        1.769918
  10        4.222725
  11        7.094556
  12        7.641452
  13        9.164863
 
  0.3333333E+00  0.5555556E-01  0.3608225E-15  0.1975309E-02
   1      -12.074112
   2      -12.001991
   3      -12.000868
   4      -11.948013
   5      -11.945153
   6       -8.390772
   7       -2.917630
   8        1.564278
   9        1.621737
  10        4.072437
  11        7.178611
  12        7.607565
  13        9.995374
 
  0.4000000E+00  0.5555556E-01  0.3885781E-15  0.9876543E-03
   1      -12.080498
   2      -12.000352
   3      -11.999466
   4      -11.946616
   5      -11.944547
   6       -8.117385
   7       -3.471875
   8        1.414829
   9        1.575963
  10        3.974200
  11        7.207989
  12        7.523394
  13       10.457221
 
  0.4666667E+00  0.5555556E-01  0.4163336E-15  0.9876543E-03
   1      -12.082609
   2      -11.999658
   3      -11.999222
   4      -11.945371
   5      -11.945152
   6       -8.016549
   7       -3.659629
   8        1.332226
   9        1.600941
  10        3.939692
  11        7.252198
  12        7.447695
  13       10.548444
 
 -0.4666667E+00  0.5555556E-01  0.3885781E-15  0.9876543E-03
   1      -12.080054
   2      -12.000256
   3      -12.000028
   4      -11.946181
   5      -11.945384
   6       -8.141404
   7       -3.425717
   8        1.322344
   9        1.693882
  10        3.971915
  11        7.331383
  12        7.399471
  13       10.471524
 
 -0.4000000E+00  0.5555556E-01  0.3885781E-15  0.9876543E-03
   1      -12.072974
   2      -12.002142
   3      -12.001453
   4      -11.947689
   5      -11.945853
   6       -8.427398
   7       -2.837443
   8        1.387781
   9        1.847605
  10        4.067652
  11        7.358866
  12        7.420342
  13        9.985183
 
 -0.3333333E+00  0.5555556E-01  0.3608225E-15  0.1975309E-02
   1      -12.062002
   2      -12.005220
   3      -12.003637
   4      -11.948695
   5      -11.946714
   6       -8.769360
   7       -2.008216
   8        1.527670
   9        2.049416
  10        4.213674
  11        7.270485
  12        7.437885
  13        9.101679
 
 -0.2666667E+00  0.5555556E-01  0.3608225E-15  0.9876543E-03
   1      -12.048713
   2      -12.008782
   3      -12.006913
   4      -11.949424
   5      -11.947379
   6       -9.093338
   7       -1.028342
   8        1.736824
   9        2.277713
  10        4.371825
  11        7.078715
  12        7.241496
  13        8.241507
 
 -0.2000000E+00  0.5555556E-01  0.3608225E-15  0.9876543E-03
   1      -12.036126
   2      -12.012651
   3      -12.010613
   4      -11.949675
   5      -11.948075
   6       -9.358429
   7        0.029573
   8        2.004212
   9        2.496553
  10        4.434397
  11        6.801105
  12        6.807276
  13        7.575578
 
 -0.1333333E+00  0.5555556E-01  0.3747003E-15  0.9876543E-03
   1      -12.025869
   2      -12.015543
   3      -12.013951
   4      -11.949324
   5      -11.948500
   6       -9.542771
   7        1.071333
   8        2.315221
   9        2.651809
  10        4.186815
  11        6.477926
  12        6.573409
  13        7.022261
 
 -0.6666667E-01  0.5555556E-01  0.3747003E-15  0.9876543E-03
   1      -12.020184
   2      -12.016880
   3      -12.016701
   4      -11.949170
   5      -11.949025
   6       -9.634749
   7        1.863157
   8        2.643931
   9        2.685445
  10        3.660936
  11        6.472427
  12        6.501960
  13        6.565060
 
  0.3742002E-15  0.1111111E+00  0.3742002E-15  0.4938272E-03
   1      -12.031299
   2      -12.012614
   3      -12.012607
   4      -11.950499
   5      -11.947768
   6       -9.494085
   7        0.924576
   8        2.219422
   9        2.219449
  10        4.679027
  11        5.908706
  12        7.174387
  13        7.174391
 
  0.6666667E-01  0.1111111E+00  0.3747003E-15  0.9876543E-03
   1      -12.040133
   2      -12.009633
   3      -12.008972
   4      -11.951570
   5      -11.946779
   6       -9.341101
   7        0.153251
   8        1.963163
   9        1.994284
  10        5.005673
  11        5.868286
  12        7.575992
  13        7.642409
 
  0.1333333E+00  0.1111111E+00  0.3747003E-15  0.9876543E-03
   1      -12.051020
   2      -12.006742
   3      -12.005095
   4      -11.952149
   5      -11.945988
   6       -9.103671
   7       -0.798278
   8        1.726434
   9        1.727626
  10        5.016706
  11        6.187928
  12        7.914188
  13        8.118695
 
  0.2000000E+00  0.1111111E+00  0.3608225E-15  0.9876543E-03
   1      -12.062738
   2      -12.003903
   3      -12.001488
   4      -11.952201
   5      -11.945217
   6       -8.799502
   7       -1.745267
   8        1.426159
   9        1.543701
  10        4.877439
  11        6.622725
  12        8.082090
  13        8.507112
 
  0.2666667E+00  0.1111111E+00  0.3330669E-15  0.9876543E-03
   1      -12.073238
   2      -12.001416
   3      -11.998994
   4      -11.951316
   5      -11.944462
   6       -8.461775
   7       -2.591117
   8        1.145344
   9        1.428118
  10        4.722177
  11        6.899516
  12        8.071057
  13        9.068870
 
  0.3333333E+00  0.1111111E+00  0.3608225E-15  0.1975309E-02
   1      -12.080718
   2      -11.999793
   3      -11.997265
   4      -11.949740
   5      -11.944168
   6       -8.151565
   7       -3.244624
   8        0.916347
   9        1.388518
  10        4.602062
  11        7.006538
  12        7.959436
  13        9.852602
 
  0.4000000E+00  0.1111111E+00  0.3885781E-15  0.9876543E-03
   1      -12.084156
   2      -11.998931
   3      -11.997090
   4      -11.947927
   5      -11.944727
   6       -7.965633
   7       -3.593934
   8        0.757064
   9        1.426173
  10        4.537447
  11        7.075498
  12        7.824967
  13       10.527077
 
  0.4666667E+00  0.1111111E+00  0.4163336E-15  0.9876543E-03
   1      -12.083377
   2      -11.998671
   3      -11.997573
   4      -11.946440
   5      -11.945998
   6       -7.991958
   7       -3.545171
   8        0.678609
   9        1.537213
  10        4.535271
  11        7.176551
  12        7.705669
  13       10.636222
 
 -0.4666667E+00  0.1111111E+00  0.3885781E-15  0.9876543E-03
   1      -12.078432
   2      -11.999473
   3      -11.999432
   4      -11.947845
   5      -11.946070
   6       -8.216257
   7       -3.114273
   8        0.689309
   9        1.712393
  10        4.593657
  11        7.313850
  12        7.598401
  13       10.060523
 
 -0.4000000E+00  0.1111111E+00  0.3885781E-15  0.9876543E-03
   1      -12.069704
   2      -12.002437
   3      -12.000915
   4      -11.949584
   5      -11.946348
   6       -8.540049
   7       -2.410112
   8        0.797250
   9        1.935824
  10        4.699920
  11        7.422301
  12        7.462491
  13        9.186083
 
 -0.3333333E+00  0.1111111E+00  0.3608225E-15  0.1975309E-02
   1      -12.058142
   2      -12.006025
   3      -12.003361
   4      -11.950182
   5      -11.946614
   6       -8.873994
   7       -1.546576
   8        1.013483
   9        2.181659
  10        4.816883
  11        7.246609
  12        7.299583
  13        8.493036
 
 -0.2666667E+00  0.1111111E+00  0.3608225E-15  0.9876543E-03
   1      -12.045993
   2      -12.009993
   3      -12.006500
   4      -11.950258
   5      -11.947242
   6       -9.164896
   7       -0.629147
   8        1.358359
   9        2.408819
  10        4.840617
  11        6.866618
  12        6.965831
  13        8.102628
 
 -0.2000000E+00  0.1111111E+00  0.3608225E-15  0.9876543E-03
   1      -12.035068
   2      -12.013106
   3      -12.010522
   4      -11.949798
   5      -11.948048
   6       -9.384056
   7        0.213334
   8        1.859044
   9        2.558993
  10        4.587521
  11        6.598804
  12        6.733279
  13        7.613353
 
 -0.1333333E+00  0.1111111E+00  0.3747003E-15  0.9876543E-03
   1      -12.027075
   2      -12.014898
   3      -12.014165
   4      -11.949113
   5      -11.948565
   6       -9.516129
   7        0.842907
   8        2.427286
   9        2.575017
  10        4.150080
  11        6.658493
  12        6.674975
  13        6.943627
 
 -0.6666667E-01  0.1111111E+00  0.3747003E-15  0.9876543E-03
   1      -12.025610
   2      -12.015012
   3      -12.014660
   4      -11.949448
   5      -11.948532
   6       -9.553471
   7        1.154921
   8        2.445612
   9        2.523257
  10        4.181084
  11        6.303217
  12        6.838594
  13        6.865842
 
  0.3742002E-15  0.1666667E+00  0.3742002E-15  0.4938272E-03
   1      -12.045556
   2      -12.006917
   3      -12.006909
   4      -11.952944
   5      -11.946251
   6       -9.274185
   7        0.000700
   8        1.777996
   9        1.778019
  10        5.158477
  11        5.716407
  12        7.900301
  13        7.900306
 
  0.6666667E-01  0.1666667E+00  0.3747003E-15  0.9876543E-03
   1      -12.055300
   2      -12.003265
   3      -12.002769
   4      -11.954271
   5      -11.945010
   6       -9.076106
   7       -0.685129
   8        1.493789
   9        1.524664
  10        5.159301
  11        5.861718
  12        8.293890
  13        8.338294
 
  0.1333333E+00  0.1666667E+00  0.3747003E-15  0.9876543E-03
   1      -12.065667
   2      -12.000489
   3      -11.998863
   4      -11.955220
   5      -11.944082
   6       -8.803916
   7       -1.503735
   8        1.146155
   9        1.323910
  10        5.185644
  11        6.154165
  12        8.341626
  13        8.620808
 
  0.2000000E+00  0.1666667E+00  0.3608225E-15  0.9876543E-03
   1      -12.075199
   2      -11.998502
   3      -11.995849
   4      -11.955095
   5      -11.943432
   6       -8.482839
   7       -2.309140
   8        0.783659
   9        1.194646
  10        5.113699
  11        6.637690
  12        8.378322
  13        8.685699
 
  0.2666667E+00  0.1666667E+00  0.3330669E-15  0.9876543E-03
   1      -12.082536
   2      -11.997427
   3      -11.993956
   4      -11.953732
   5      -11.943219
   6       -8.159589
   7       -2.996435
   8        0.463559
   9        1.146055
  10        5.021504
  11        6.992884
  12        8.587963
  13        8.805800
 
  0.3333333E+00  0.1666667E+00  0.3608225E-15  0.1975309E-02
   1      -12.086599
   2      -11.996921
   3      -11.993501
   4      -11.951645
   5      -11.944021
   6       -7.914365
   7       -3.455339
   8        0.217322
   9        1.180527
  10        4.968222
  11        7.126816
  12        8.421265
  13        9.637819
 
  0.4000000E+00  0.1666667E+00  0.3885781E-15  0.9876543E-03
   1      -12.086901
   2      -11.996759
   3      -11.993901
   4      -11.949454
   5      -11.945344
   6       -7.845707
   7       -3.573665
   8        0.063032
   9        1.294797
  10        4.972342
  11        7.212917
  12        8.244331
  13       10.417042
 
  0.4666667E+00  0.1666667E+00  0.4163336E-15  0.9876543E-03
   1      -12.083785
   2      -11.997454
   3      -11.995783
   4      -11.947900
   5      -11.947807
   6       -7.989078
   7       -3.315219
   8        0.015348
   9        1.479540
  10        5.031621
  11        7.336160
  12        8.068845
  13       10.125516
 
 -0.4666667E+00  0.1666667E+00  0.3885781E-15  0.9876543E-03
   1      -12.077073
   2      -11.998575
   3      -11.998548
   4      -11.949601
   5      -11.946967
   6       -8.273938
   7       -2.764573
   8        0.092588
   9        1.718010
  10        5.126560
  11        7.489237
  12        7.864383
  13        9.193020
 
 -0.4000000E+00  0.1666667E+00  0.3885781E-15  0.9876543E-03
   1      -12.067660
   2      -12.002204
   3      -12.000424
   4      -11.950639
   5      -11.946596
   6       -8.603029
   7       -2.055768
   8        0.324790
   9        1.982301
  10        5.205227
  11        7.505118
  12        7.584985
  13        8.447008
 
 -0.3333333E+00  0.1666667E+00  0.3608225E-15  0.9876543E-03
   1      -12.056726
   2      -12.006402
   3      -12.002982
   4      -11.950689
   5      -11.946738
   6       -8.909729
   7       -1.324181
   8        0.758207
   9        2.228235
  10        5.137930
  11        7.138678
  12        7.249813
  13        8.277937
 
 -0.2666667E+00  0.1666667E+00  0.3608225E-15  0.9876543E-03
   1      -12.046327
   2      -12.009883
   3      -12.006697
   4      -11.950182
   5      -11.947327
   6       -9.156892
   7       -0.682838
   8        1.412028
   9        2.393633
  10        4.771273
  11        6.930974
  12        6.978554
  13        8.111624
 
 -0.2000000E+00  0.1666667E+00  0.3608225E-15  0.9876543E-03
   1      -12.037764
   2      -12.011929
   3      -12.010742
   4      -11.949355
   5      -11.948130
   6       -9.324430
   7       -0.170355
   8        2.135444
   9        2.417627
  10        4.295792
  11        6.901919
  12        6.990418
  13        7.557640
 
 -0.1333333E+00  0.1666667E+00  0.3747003E-15  0.9876543E-03
   1      -12.033781
   2      -12.012785
   3      -12.011901
   4      -11.949350
   5      -11.948060
   6       -9.401850
   7        0.201741
   8        2.286691
   9        2.405321
  10        4.309297
  11        6.635259
  12        7.070059
  13        7.278980
 
 -0.6666667E-01  0.1666667E+00  0.3747003E-15  0.9876543E-03
   1      -12.037302
   2      -12.010681
   3      -12.010001
   4      -11.951092
   5      -11.947069
   6       -9.384830
   7        0.321937
   8        2.050167
   9        2.093227
  10        4.886026
  11        5.931624
  12        7.436239
  13        7.504261
 
  0.3742002E-15  0.2222222E+00  0.3742002E-15  0.4938272E-03
   1      -12.061517
   2      -11.999748
   3      -11.999740
   4      -11.956365
   5      -11.944046
   6       -8.977773
   7       -0.891118
   8        1.339429
   9        1.339450
  10        4.896004
  11        5.914589
  12        8.731071
  13        8.731075
 
  0.6666667E-01  0.2222222E+00  0.3747003E-15  0.9876543E-03
   1      -12.071176
   2      -11.996228
   3      -11.995685
   4      -11.958139
   5      -11.942997
   6       -8.742497
   7       -1.500840
   8        1.029880
   9        1.116673
  10        4.867473
  11        5.921102
  12        8.876811
  13        9.167893
 
  0.1333333E+00  0.2222222E+00  0.3747003E-15  0.9876543E-03
   1      -12.079822
   2      -11.994036
   3      -11.992253
   4      -11.958692
   5      -11.942243
   6       -8.448544
   7       -2.182710
   8        0.618510
   9        0.965195
  10        4.987946
  11        6.138827
  12        8.677042
  13        9.371317
 
  0.2000000E+00  0.2222222E+00  0.3608225E-15  0.9876543E-03
   1      -12.086532
   2      -11.993072
   3      -11.990115
   4      -11.957739
   5      -11.941930
   6       -8.131897
   7       -2.822597
   8        0.198939
   9        0.896536
  10        5.005979
  11        6.727608
  12        8.553223
  13        9.341412
 
  0.2666667E+00  0.2222222E+00  0.3330669E-15  0.9876543E-03
   1      -12.090423
   2      -11.993139
   3      -11.989206
   4      -11.955899
   5      -11.942729
   6       -7.856123
   7       -3.315512
   8       -0.155031
   9        0.914880
  10        4.998572
  11        7.346298
  12        8.756721
  13        9.175898
 
  0.3333333E+00  0.2222222E+00  0.3608225E-15  0.1975309E-02
   1      -12.091212
   2      -11.993929
   3      -11.989545
   4      -11.953441
   5      -11.944521
   6       -7.712601
   7       -3.548747
   8       -0.404838
   9        1.018439
  10        5.038749
  11        7.620623
  12        8.958281
  13        9.505257
 
  0.4000000E+00  0.2222222E+00  0.3885781E-15  0.9876543E-03
   1      -12.088806
   2      -11.994935
   3      -11.991175
   4      -11.950915
   5      -11.946738
   6       -7.768395
   7       -3.451615
   8       -0.524476
   9        1.199264
  10        5.137831
  11        7.731391
  12        8.715734
  13       10.064509
 
  0.4666667E+00  0.2222222E+00  0.4163336E-15  0.9876543E-03
   1      -12.083659
   2      -11.996277
   3      -11.993988
   4      -11.948953
   5      -11.948820
   6       -7.994347
   7       -3.071501
   8       -0.483102
   9        1.441635
  10        5.271353
  11        7.857129
  12        8.422676
  13        9.262979
 
 -0.4666667E+00  0.2222222E+00  0.3885781E-15  0.9876543E-03
   1      -12.076284
   2      -11.998046
   3      -11.997899
   4      -11.950572
   5      -11.947388
   6       -8.300157
   7       -2.545777
   8       -0.233726
   9        1.718607
  10        5.366711
  11        7.976789
  12        8.037862
  13        8.360601
 
 -0.4000000E+00  0.2222222E+00  0.3885781E-15  0.9876543E-03
   1      -12.067381
   2      -12.002157
   3      -12.000327
   4      -11.950763
   5      -11.946628
   6       -8.608886
   7       -2.014611
   8        0.272135
   9        1.986509
  10        5.260673
  11        7.531548
  12        7.599811
  13        8.349813
 
 -0.2666667E+00  0.2222222E+00  0.3608225E-15  0.9876543E-03
   1      -12.049483
   2      -12.008437
   3      -12.006908
   4      -11.949155
   5      -11.947402
   6       -9.069727
   7       -1.133068
   8        1.822783
   9        2.236591
  10        4.269621
  11        7.115647
  12        7.292466
  13        8.313544
 
 -0.2000000E+00  0.2222222E+00  0.3608225E-15  0.9876543E-03
   1      -12.044384
   2      -12.009695
   3      -12.009002
   4      -11.949018
   5      -11.948080
   6       -9.182101
   7       -0.767852
   8        2.126250
   9        2.226087
  10        4.191602
  11        7.029264
  12        7.263911
  13        7.962282
 
 -0.1333333E+00  0.2222222E+00  0.3747003E-15  0.9876543E-03
   1      -12.045535
   2      -12.008852
   3      -12.007355
   4      -11.951183
   5      -11.946682
   6       -9.204339
   7       -0.511765
   8        1.893600
   9        1.954635
  10        4.819969
  11        6.291660
  12        7.650576
  13        7.930350
 
 -0.6666667E-01  0.2222222E+00  0.3747003E-15  0.9876543E-03
   1      -12.052219
   2      -12.004572
   3      -12.004083
   4      -11.953714
   5      -11.945451
   6       -9.135016
   7       -0.518735
   8        1.592613
   9        1.611255
  10        5.194066
  11        5.822073
  12        8.173036
  13        8.179041
 
  0.3742002E-15  0.2777778E+00  0.3742002E-15  0.4938272E-03
   1      -12.077436
   2      -11.992644
   3      -11.992636
   4      -11.960226
   5      -11.942215
   6       -8.617799
   7       -1.739496
   8        0.947893
   9        0.947913
  10        4.579611
  11        5.755026
  12        9.617500
  13        9.617507
 
  0.6666667E-01  0.2777778E+00  0.3747003E-15  0.9876543E-03
   1      -12.085709
   2      -11.989187
   3      -11.988799
   4      -11.961814
   5      -11.941096
   6       -8.358104
   7       -2.273604
   8        0.637858
   9        0.769728
  10        4.599418
  11        5.637768
  12        9.608799
  13       10.030272
 
  0.1333333E+00  0.2777778E+00  0.3747003E-15  0.9876543E-03
   1      -12.092015
   2      -11.987918
   3      -11.985969
   4      -11.961741
   5      -11.940662
   6       -8.063352
   7       -2.815149
   8        0.187952
   9        0.674185
  10        4.753082
  11        5.897727
  12        9.374759
  13       10.145825
 
  0.2000000E+00  0.2777778E+00  0.3608225E-15  0.9876543E-03
   1      -12.095483
   2      -11.988317
   3      -11.984751
   4      -11.960197
   5      -11.941158
   6       -7.783887
   7       -3.269018
   8       -0.268781
   9        0.667676
  10        4.807728
  11        6.627280
  12        9.202097
  13       10.029535
 
  0.2666667E+00  0.2777778E+00  0.3330669E-15  0.9876543E-03
   1      -12.096268
   2      -11.989895
   3      -11.984836
   4      -11.957955
   5      -11.943005
   6       -7.596832
   7       -3.540631
   8       -0.634919
   9        0.750295
  10        4.868423
  11        7.533355
  12        9.199895
  13        9.791692
 
  0.3333333E+00  0.2777778E+00  0.3608225E-15  0.1975309E-02
   1      -12.094060
   2      -11.991858
   3      -11.986234
   4      -11.954995
   5      -11.945249
   6       -7.577635
   7       -3.556163
   8       -0.851468
   9        0.916033
  10        4.990498
  11        8.183941
  12        9.479698
  13        9.606656
 
  0.4000000E+00  0.2777778E+00  0.3885781E-15  0.9876543E-03
   1      -12.089673
   2      -11.993961
   3      -11.989219
   4      -11.951765
   5      -11.947669
   6       -7.733410
   7       -3.334321
   8       -0.866273
   9        1.151415
  10        5.162803
  11        8.398979
  12        9.070035
  13        9.483314
 
  0.4666667E+00  0.2777778E+00  0.4163336E-15  0.9876543E-03
   1      -12.083610
   2      -11.996000
   3      -11.993345
   4      -11.949385
   5      -11.948938
   6       -7.996367
   7       -2.993267
   8       -0.620730
   9        1.432306
  10        5.314917
  11        8.259372
  12        8.535689
  13        8.780196
 
 -0.4666667E+00  0.2777778E+00  0.3885781E-15  0.9876543E-03
   1      -12.076694
   2      -11.998310
   3      -11.998197
   4      -11.950060
   5      -11.947225
   6       -8.288739
   7       -2.647977
   8       -0.085112
   9        1.718489
  10        5.263574
  11        7.651493
  12        7.956755
  13        8.835929
 
 -0.4000000E+00  0.2777778E+00  0.3885781E-15  0.9876543E-03
   1      -12.069180
   2      -12.002395
   3      -12.000770
   4      -11.949715
   5      -11.946419
   6       -8.556953
   7       -2.327139
   8        0.683734
   9        1.948516
  10        4.821956
  11        7.429027
  12        7.489636
  13        9.019625
 
 -0.2666667E+00  0.2777778E+00  0.3608225E-15  0.9876543E-03
   1      -12.056674
   2      -12.006417
   3      -12.006103
   4      -11.948239
   5      -11.947686
   6       -8.907999
   7       -1.682874
   8        1.979075
   9        2.032609
  10        4.000444
  11        7.276672
  12        7.366440
  13        8.856804
 
 -0.2000000E+00  0.2777778E+00  0.3608225E-15  0.9876543E-03
   1      -12.055102
   2      -12.006530
   3      -12.004592
   4      -11.950654
   5      -11.946317
   6       -8.963299
   7       -1.386727
   8        1.765759
   9        1.797588
  10        4.587551
  11        6.748335
  12        7.750285
  13        8.456948
 
 -0.1333333E+00  0.2777778E+00  0.3747003E-15  0.9876543E-03
   1      -12.059765
   2      -12.002980
   3      -12.001371
   4      -11.953966
   5      -11.944817
   6       -8.931510
   7       -1.224034
   8        1.375653
   9        1.481729
  10        5.184829
  11        6.130240
  12        8.277931
  13        8.331534
 
 -0.6666667E-01  0.2777778E+00  0.3747003E-15  0.9876543E-03
   1      -12.068063
   2      -11.997650
   3      -11.997106
   4      -11.957380
   5      -11.943420
   6       -8.813984
   7       -1.340409
   8        1.117733
   9        1.194112
  10        4.928498
  11        5.940593
  12        8.753968
  13        8.998481
 
  0.3742002E-15  0.3333333E+00  0.3742002E-15  0.1481481E-02
   1      -12.091335
   2      -11.985665
   3      -11.985658
   4      -11.963909
   5      -11.940285
   6       -8.216118
   7       -2.523374
   8        0.627003
   9        0.627022
  10        4.347006
  11        5.353261
  12       10.527472
  13       10.527477
 
  0.6666667E-01  0.3333333E+00  0.3747003E-15  0.2962963E-02
   1      -12.097411
   2      -11.982974
   3      -11.982458
   4      -11.964793
   5      -11.939425
   6       -7.954548
   7       -2.969901
   8        0.335846
   9        0.500989
  10        4.420442
  11        5.239309
  12       10.481752
  13       10.895821
 
  0.1333333E+00  0.3333333E+00  0.3747003E-15  0.2962963E-02
   1      -12.101037
   2      -11.983204
   3      -11.980743
   4      -11.964359
   5      -11.939690
   6       -7.694504
   7       -3.357930
   8       -0.122237
   9        0.464267
  10        4.573359
  11        5.627019
  12       10.249125
  13       10.911517
 
  0.2000000E+00  0.3333333E+00  0.3608225E-15  0.2962963E-02
   1      -12.101587
   2      -11.984875
   3      -11.980462
   4      -11.962068
   5      -11.940806
   6       -7.499372
   7       -3.607073
   8       -0.580054
   9        0.519103
  10        4.651949
  11        6.492341
  12       10.063937
  13       10.685987
 
  0.2666667E+00  0.3333333E+00  0.3330669E-15  0.2962963E-02
   1      -12.099276
   2      -11.987829
   3      -11.981989
   4      -11.959193
   5      -11.943223
   6       -7.436991
   7       -3.663033
   8       -0.910583
   9        0.661655
  10        4.775273
  11        7.543306
  12        9.986616
  13       10.296930
 
  0.3333333E+00  0.3333333E+00  0.3608225E-15  0.2962963E-02
   1      -12.095176
   2      -11.991227
   3      -11.985090
   4      -11.955566
   5      -11.945727
   6       -7.530351
   7       -3.544494
   8       -1.018453
   9        0.881062
  10        4.962329
  11        8.411424
  12        9.735041
  13       10.021369
 
  0.4000000E+00  0.3333333E+00  0.3885781E-15  0.2962963E-02
   1      -12.089569
   2      -11.994064
   3      -11.989499
   4      -11.951722
   5      -11.947575
   6       -7.737220
   7       -3.350277
   8       -0.825285
   9        1.156811
  10        5.161724
  11        8.279619
  12        9.022858
  13        9.595433
 
  0.4666667E+00  0.3333333E+00  0.4163336E-15  0.2962963E-02
   1      -12.083611
   2      -11.996523
   3      -11.994584
   4      -11.948507
   5      -11.948476
   6       -7.992127
   7       -3.160440
   8       -0.315276