Automatically generated mesh
     852
Reciprocal lattice
    0.00000000000000    0.00000000000000    0.00000000000000             1
    0.06666666666667    0.00000000000000    0.00000000000000             4
    0.13333333333333    0.00000000000000    0.00000000000000             4
    0.20000000000000    0.00000000000000    0.00000000000000             4
    0.26666666666667    0.00000000000000    0.00000000000000             4
    0.33333333333333    0.00000000000000    0.00000000000000             8
    0.40000000000000    0.00000000000000    0.00000000000000             4
    0.46666666666667    0.00000000000000    0.00000000000000             4
    0.00000000000000    0.05555555555556    0.00000000000000             2
    0.06666666666667    0.05555555555556    0.00000000000000             4
    0.13333333333333    0.05555555555556    0.00000000000000             4
    0.20000000000000    0.05555555555556    0.00000000000000             4
    0.26666666666667    0.05555555555556    0.00000000000000             4
    0.33333333333333    0.05555555555556    0.00000000000000             8
    0.40000000000000    0.05555555555556    0.00000000000000             4
    0.46666666666667    0.05555555555556    0.00000000000000             4
   -0.46666666666667    0.05555555555556    0.00000000000000             4
   -0.40000000000000    0.05555555555556    0.00000000000000             4
   -0.33333333333333    0.05555555555556    0.00000000000000             8
   -0.26666666666667    0.05555555555556    0.00000000000000             4
   -0.20000000000000    0.05555555555556    0.00000000000000             4
   -0.13333333333333    0.05555555555556    0.00000000000000             4
   -0.06666666666667    0.05555555555556    0.00000000000000             4
    0.00000000000000    0.11111111111111    0.00000000000000             2
    0.06666666666667    0.11111111111111    0.00000000000000             4
    0.13333333333333    0.11111111111111    0.00000000000000             4
    0.20000000000000    0.11111111111111    0.00000000000000             4
    0.26666666666667    0.11111111111111    0.00000000000000             4
    0.33333333333333    0.11111111111111    0.00000000000000             8
    0.40000000000000    0.11111111111111    0.00000000000000             4
    0.46666666666667    0.11111111111111    0.00000000000000             4
   -0.46666666666667    0.11111111111111    0.00000000000000             4
   -0.40000000000000    0.11111111111111    0.00000000000000             4
   -0.33333333333333    0.11111111111111    0.00000000000000             8
   -0.26666666666667    0.11111111111111    0.00000000000000             4
   -0.20000000000000    0.11111111111111    0.00000000000000             4
   -0.13333333333333    0.11111111111111    0.00000000000000             4
   -0.06666666666667    0.11111111111111    0.00000000000000             4
    0.00000000000000    0.16666666666667    0.00000000000000             2
    0.06666666666667    0.16666666666667    0.00000000000000             4
    0.13333333333333    0.16666666666667    0.00000000000000             4
    0.20000000000000    0.16666666666667    0.00000000000000             4
    0.26666666666667    0.16666666666667    0.00000000000000             4
    0.33333333333333    0.16666666666667    0.00000000000000             8
    0.40000000000000    0.16666666666667    0.00000000000000             4
    0.46666666666667    0.16666666666667    0.00000000000000             4
   -0.46666666666667    0.16666666666667    0.00000000000000             4
   -0.40000000000000    0.16666666666667    0.00000000000000             4
   -0.33333333333333    0.16666666666667    0.00000000000000             4
   -0.26666666666667    0.16666666666667    0.00000000000000             4
   -0.20000000000000    0.16666666666667    0.00000000000000             4
   -0.13333333333333    0.16666666666667    0.00000000000000             4
   -0.06666666666667    0.16666666666667    0.00000000000000             4
    0.00000000000000    0.22222222222222    0.00000000000000             2
    0.06666666666667    0.22222222222222    0.00000000000000             4
    0.13333333333333    0.22222222222222    0.00000000000000             4
    0.20000000000000    0.22222222222222    0.00000000000000             4
    0.26666666666667    0.22222222222222    0.00000000000000             4
    0.33333333333333    0.22222222222222    0.00000000000000             8
    0.40000000000000    0.22222222222222    0.00000000000000             4
    0.46666666666667    0.22222222222222    0.00000000000000             4
   -0.46666666666667    0.22222222222222    0.00000000000000             4
   -0.40000000000000    0.22222222222222    0.00000000000000             4
   -0.26666666666667    0.22222222222222    0.00000000000000             4
   -0.20000000000000    0.22222222222222    0.00000000000000             4
   -0.13333333333333    0.22222222222222    0.00000000000000             4
   -0.06666666666667    0.22222222222222    0.00000000000000             4
    0.00000000000000    0.27777777777778    0.00000000000000             2
    0.06666666666667    0.27777777777778    0.00000000000000             4
    0.13333333333333    0.27777777777778    0.00000000000000             4
    0.20000000000000    0.27777777777778    0.00000000000000             4
    0.26666666666667    0.27777777777778    0.00000000000000             4
    0.33333333333333    0.27777777777778    0.00000000000000             8
    0.40000000000000    0.27777777777778    0.00000000000000             4
    0.46666666666667    0.27777777777778    0.00000000000000             4
   -0.46666666666667    0.27777777777778    0.00000000000000             4
   -0.40000000000000    0.27777777777778    0.00000000000000             4
   -0.26666666666667    0.27777777777778    0.00000000000000             4
   -0.20000000000000    0.27777777777778    0.00000000000000             4
   -0.13333333333333    0.27777777777778    0.00000000000000             4
   -0.06666666666667    0.27777777777778    0.00000000000000             4
    0.00000000000000    0.33333333333333    0.00000000000000             6
    0.06666666666667    0.33333333333333    0.00000000000000            12
    0.13333333333333    0.33333333333333    0.00000000000000            12
    0.20000000000000    0.33333333333333    0.00000000000000            12
    0.26666666666667    0.33333333333333    0.00000000000000            12
    0.33333333333333    0.33333333333333    0.00000000000000            12
    0.40000000000000    0.33333333333333    0.00000000000000            12
    0.46666666666667    0.33333333333333    0.00000000000000            12
   -0.46666666666667    0.33333333333333    0.00000000000000            12
   -0.40000000000000    0.33333333333333    0.00000000000000            12
   -0.26666666666667    0.33333333333333    0.00000000000000            12
   -0.20000000000000    0.33333333333333    0.00000000000000            12
   -0.13333333333333    0.33333333333333    0.00000000000000            12
   -0.06666666666667    0.33333333333333    0.00000000000000            12
    0.00000000000000    0.38888888888889    0.00000000000000             2
    0.06666666666667    0.38888888888889    0.00000000000000             4
    0.13333333333333    0.38888888888889    0.00000000000000             4
    0.20000000000000    0.38888888888889    0.00000000000000             4
    0.26666666666667    0.38888888888889    0.00000000000000             4
    0.40000000000000    0.38888888888889    0.00000000000000             4
    0.46666666666667    0.38888888888889    0.00000000000000             4
   -0.46666666666667    0.38888888888889    0.00000000000000             4
   -0.40000000000000    0.38888888888889    0.00000000000000             4
   -0.26666666666667    0.38888888888889    0.00000000000000             4
   -0.20000000000000    0.38888888888889    0.00000000000000             4
   -0.13333333333333    0.38888888888889    0.00000000000000             4
   -0.06666666666667    0.38888888888889    0.00000000000000             4
    0.00000000000000    0.44444444444444    0.00000000000000             2
    0.06666666666667    0.44444444444444    0.00000000000000             4
    0.13333333333333    0.44444444444444    0.00000000000000             4
    0.20000000000000    0.44444444444445    0.00000000000000             4
    0.26666666666667    0.44444444444445    0.00000000000000             4
    0.40000000000000    0.44444444444444    0.00000000000000             4
    0.46666666666667    0.44444444444444    0.00000000000000             4
   -0.46666666666667    0.44444444444444    0.00000000000000             4
   -0.40000000000000    0.44444444444444    0.00000000000000             4
   -0.26666666666667    0.44444444444444    0.00000000000000             4
   -0.20000000000000    0.44444444444444    0.00000000000000             4
   -0.13333333333333    0.44444444444444    0.00000000000000             4
   -0.06666666666667    0.44444444444444    0.00000000000000             4
    0.00000000000000    0.50000000000000    0.00000000000000             1
    0.06666666666667    0.50000000000000    0.00000000000000             4
    0.13333333333333    0.50000000000000    0.00000000000000             4
    0.20000000000000    0.50000000000000    0.00000000000000             4
    0.26666666666667    0.50000000000000    0.00000000000000             4
    0.40000000000000    0.50000000000000    0.00000000000000             4
    0.46666666666667    0.50000000000000    0.00000000000000             4
    0.06666666666667    0.00000000000000    0.06666666666667             2
    0.13333333333333    0.00000000000000    0.06666666666667             4
    0.20000000000000    0.00000000000000    0.06666666666667             4
    0.26666666666667    0.00000000000000    0.06666666666667             8
    0.40000000000000    0.00000000000000    0.06666666666667             4
    0.46666666666667    0.00000000000000    0.06666666666667             4
   -0.46666666666667    0.00000000000000    0.06666666666667             4
   -0.40000000000000    0.00000000000000    0.06666666666667             8
   -0.26666666666667    0.00000000000000    0.06666666666667             4
   -0.20000000000000    0.00000000000000    0.06666666666667             4
   -0.13333333333333    0.00000000000000    0.06666666666667             4
   -0.06666666666667    0.00000000000000    0.06666666666667             2
    0.06666666666667    0.05555555555556    0.06666666666667             2
    0.13333333333333    0.05555555555556    0.06666666666667             4
    0.20000000000000    0.05555555555556    0.06666666666667             4
    0.26666666666667    0.05555555555556    0.06666666666667             8
    0.33333333333333    0.05555555555556    0.06666666666667             8
    0.40000000000000    0.05555555555556    0.06666666666667             4
    0.46666666666667    0.05555555555556    0.06666666666667             4
   -0.46666666666667    0.05555555555556    0.06666666666667             4
   -0.40000000000000    0.05555555555556    0.06666666666667             8
   -0.33333333333333    0.05555555555556    0.06666666666667             8
   -0.26666666666667    0.05555555555556    0.06666666666667             4
   -0.20000000000000    0.05555555555556    0.06666666666667             4
   -0.13333333333333    0.05555555555556    0.06666666666667             4
   -0.06666666666667    0.05555555555556    0.06666666666667             4
    0.06666666666667    0.11111111111111    0.06666666666667             2
    0.13333333333333    0.11111111111111    0.06666666666667             4
    0.20000000000000    0.11111111111111    0.06666666666667             4
    0.26666666666667    0.11111111111111    0.06666666666667             8
    0.33333333333333    0.11111111111111    0.06666666666667             8
    0.40000000000000    0.11111111111111    0.06666666666667             4
    0.46666666666667    0.11111111111111    0.06666666666667             4
   -0.46666666666667    0.11111111111111    0.06666666666667             4
   -0.40000000000000    0.11111111111111    0.06666666666667             8
   -0.33333333333333    0.11111111111111    0.06666666666667             8
   -0.26666666666667    0.11111111111111    0.06666666666667             4
   -0.20000000000000    0.11111111111111    0.06666666666667             4
   -0.13333333333333    0.11111111111111    0.06666666666667             4
   -0.06666666666667    0.11111111111111    0.06666666666667             4
    0.06666666666667    0.16666666666667    0.06666666666667             2
    0.13333333333333    0.16666666666667    0.06666666666667             4
    0.20000000000000    0.16666666666667    0.06666666666667             4
    0.26666666666667    0.16666666666667    0.06666666666667             8
    0.33333333333333    0.16666666666667    0.06666666666667             8
    0.40000000000000    0.16666666666667    0.06666666666667             4
    0.46666666666667    0.16666666666667    0.06666666666667             4
   -0.46666666666667    0.16666666666667    0.06666666666667             4
   -0.40000000000000    0.16666666666667    0.06666666666667             4
   -0.33333333333333    0.16666666666667    0.06666666666667             8
   -0.26666666666667    0.16666666666667    0.06666666666667             4
   -0.20000000000000    0.16666666666667    0.06666666666667             4
   -0.13333333333333    0.16666666666667    0.06666666666667             4
   -0.06666666666667    0.16666666666667    0.06666666666667             4
    0.06666666666667    0.22222222222222    0.06666666666667             2
    0.13333333333333    0.22222222222222    0.06666666666667             4
    0.20000000000000    0.22222222222222    0.06666666666667             4
    0.26666666666667    0.22222222222222    0.06666666666667             8
    0.33333333333333    0.22222222222222    0.06666666666667             8
    0.40000000000000    0.22222222222222    0.06666666666667             4
    0.46666666666667    0.22222222222222    0.06666666666667             4
   -0.46666666666667    0.22222222222222    0.06666666666667             4
   -0.33333333333333    0.22222222222222    0.06666666666667             8
   -0.26666666666667    0.22222222222222    0.06666666666667             4
   -0.20000000000000    0.22222222222222    0.06666666666667             4
   -0.13333333333333    0.22222222222222    0.06666666666667             4
   -0.06666666666667    0.22222222222222    0.06666666666667             4
    0.06666666666667    0.27777777777778    0.06666666666667             2
    0.13333333333333    0.27777777777778    0.06666666666667             4
    0.20000000000000    0.27777777777778    0.06666666666667             4
    0.26666666666667    0.27777777777778    0.06666666666667             8
    0.33333333333333    0.27777777777778    0.06666666666667             8
    0.40000000000000    0.27777777777778    0.06666666666667             4
    0.46666666666667    0.27777777777778    0.06666666666667             4
   -0.46666666666667    0.27777777777778    0.06666666666667             4
   -0.33333333333333    0.27777777777778    0.06666666666667             8
   -0.26666666666667    0.27777777777778    0.06666666666667             4
   -0.20000000000000    0.27777777777778    0.06666666666667             4
   -0.13333333333333    0.27777777777778    0.06666666666667             4
   -0.06666666666667    0.27777777777778    0.06666666666667             4
    0.06666666666667    0.33333333333333    0.06666666666667             4
    0.13333333333333    0.33333333333333    0.06666666666667             8
    0.20000000000000    0.33333333333333    0.06666666666667             8
    0.26666666666667    0.33333333333333    0.06666666666667             8
    0.33333333333333    0.33333333333333    0.06666666666667            24
    0.40000000000000    0.33333333333333    0.06666666666667             8
    0.46666666666667    0.33333333333333    0.06666666666667             8
   -0.46666666666667    0.33333333333333    0.06666666666667             8
   -0.26666666666667    0.33333333333333    0.06666666666667             8
   -0.20000000000000    0.33333333333333    0.06666666666667             8
   -0.13333333333333    0.33333333333333    0.06666666666667             8
   -0.06666666666667    0.33333333333333    0.06666666666667             8
    0.06666666666667    0.38888888888889    0.06666666666667             2
    0.13333333333333    0.38888888888889    0.06666666666667             4
    0.20000000000000    0.38888888888889    0.06666666666667             4
    0.33333333333333    0.38888888888889    0.06666666666667             8
    0.40000000000000    0.38888888888889    0.06666666666667             4
    0.46666666666667    0.38888888888889    0.06666666666667             4
   -0.46666666666667    0.38888888888889    0.06666666666667             4
   -0.40000000000000    0.38888888888889    0.06666666666667             8
   -0.26666666666667    0.38888888888889    0.06666666666667             4
   -0.20000000000000    0.38888888888889    0.06666666666667             4
   -0.13333333333333    0.38888888888889    0.06666666666667             4
   -0.06666666666667    0.38888888888889    0.06666666666667             4
    0.06666666666667    0.44444444444444    0.06666666666667             2
    0.13333333333333    0.44444444444445    0.06666666666667             4
    0.20000000000000    0.44444444444445    0.06666666666667             4
    0.33333333333333    0.44444444444444    0.06666666666667             8
    0.40000000000000    0.44444444444444    0.06666666666667             4
    0.46666666666667    0.44444444444444    0.06666666666667             4
   -0.46666666666667    0.44444444444444    0.06666666666667             4
   -0.40000000000000    0.44444444444444    0.06666666666667             8
   -0.26666666666667    0.44444444444444    0.06666666666667             4
   -0.20000000000000    0.44444444444444    0.06666666666667             4
   -0.13333333333333    0.44444444444444    0.06666666666667             4
   -0.06666666666667    0.44444444444444    0.06666666666667             4
    0.06666666666667    0.50000000000000    0.06666666666667             2
    0.13333333333333    0.50000000000000    0.06666666666667             4
    0.20000000000000    0.50000000000000    0.06666666666667             4
    0.33333333333333    0.50000000000000    0.06666666666667             8
    0.40000000000000    0.50000000000000    0.06666666666667             4
    0.46666666666667    0.50000000000000    0.06666666666667             4
   -0.46666666666667    0.50000000000000    0.06666666666667             4
   -0.40000000000000    0.50000000000000    0.06666666666667             8
   -0.26666666666667    0.50000000000000    0.06666666666667             4
   -0.20000000000000    0.50000000000000    0.06666666666667             4
   -0.13333333333333    0.50000000000000    0.06666666666667             4
   -0.06666666666667    0.50000000000000    0.06666666666667             2
    0.06666666666667   -0.44444444444444    0.06666666666667             2
    0.13333333333333   -0.44444444444444    0.06666666666667             4
    0.20000000000000   -0.44444444444444    0.06666666666667             4
    0.33333333333333   -0.44444444444444    0.06666666666667             8
    0.40000000000000   -0.44444444444444    0.06666666666667             4
    0.46666666666667   -0.44444444444444    0.06666666666667             4
   -0.46666666666667   -0.44444444444444    0.06666666666667             4
   -0.40000000000000   -0.44444444444444    0.06666666666667             8
   -0.26666666666667   -0.44444444444444    0.06666666666667             4
   -0.20000000000000   -0.44444444444444    0.06666666666667             4
   -0.13333333333333   -0.44444444444444    0.06666666666667             4
    0.06666666666667   -0.38888888888889    0.06666666666667             2
    0.13333333333333   -0.38888888888889    0.06666666666667             4
    0.20000000000000   -0.38888888888889    0.06666666666667             4
    0.33333333333333   -0.38888888888889    0.06666666666667             8
    0.40000000000000   -0.38888888888889    0.06666666666667             4
    0.46666666666667   -0.38888888888889    0.06666666666667             4
   -0.46666666666667   -0.38888888888889    0.06666666666667             4
   -0.40000000000000   -0.38888888888889    0.06666666666667             8
   -0.26666666666667   -0.38888888888889    0.06666666666667             4
   -0.20000000000000   -0.38888888888889    0.06666666666667             4
   -0.13333333333333   -0.38888888888889    0.06666666666667             4
    0.06666666666667   -0.33333333333333    0.06666666666667             4
    0.13333333333333   -0.33333333333333    0.06666666666667             8
    0.20000000000000   -0.33333333333333    0.06666666666667             8
    0.46666666666667   -0.33333333333333    0.06666666666667             8
   -0.46666666666667   -0.33333333333333    0.06666666666667             8
   -0.40000000000000   -0.33333333333333    0.06666666666667             8
   -0.26666666666667   -0.33333333333333    0.06666666666667             8
   -0.20000000000000   -0.33333333333333    0.06666666666667             8
   -0.13333333333333   -0.33333333333333    0.06666666666667             8
    0.06666666666667   -0.27777777777778    0.06666666666667             2
    0.13333333333333   -0.27777777777778    0.06666666666667             4
    0.20000000000000   -0.27777777777778    0.06666666666667             4
    0.26666666666667   -0.27777777777778    0.06666666666667             8
    0.40000000000000   -0.27777777777778    0.06666666666667             4
    0.46666666666667   -0.27777777777778    0.06666666666667             4
   -0.46666666666667   -0.27777777777778    0.06666666666667             4
   -0.26666666666667   -0.27777777777778    0.06666666666667             4
   -0.20000000000000   -0.27777777777778    0.06666666666667             4
   -0.13333333333333   -0.27777777777778    0.06666666666667             4
    0.06666666666667   -0.22222222222222    0.06666666666667             2
    0.13333333333333   -0.22222222222222    0.06666666666667             4
    0.20000000000000   -0.22222222222222    0.06666666666667             4
    0.26666666666667   -0.22222222222222    0.06666666666667             8
    0.40000000000000   -0.22222222222222    0.06666666666667             4
    0.46666666666667   -0.22222222222222    0.06666666666667             4
   -0.46666666666667   -0.22222222222222    0.06666666666667             4
   -0.26666666666667   -0.22222222222222    0.06666666666667             4
   -0.20000000000000   -0.22222222222222    0.06666666666667             4
   -0.13333333333333   -0.22222222222222    0.06666666666667             4
    0.06666666666667   -0.16666666666667    0.06666666666667             2
    0.13333333333333   -0.16666666666667    0.06666666666667             4
    0.20000000000000   -0.16666666666667    0.06666666666667             4
    0.26666666666667   -0.16666666666667    0.06666666666667             4
    0.40000000000000   -0.16666666666667    0.06666666666667             4
    0.46666666666667   -0.16666666666667    0.06666666666667             4
   -0.46666666666667   -0.16666666666667    0.06666666666667             4
   -0.26666666666667   -0.16666666666667    0.06666666666667             4
   -0.20000000000000   -0.16666666666667    0.06666666666667             4
   -0.13333333333333   -0.16666666666667    0.06666666666667             4
    0.06666666666667   -0.11111111111111    0.06666666666667             2
    0.13333333333333   -0.11111111111111    0.06666666666667             4
    0.20000000000000   -0.11111111111111    0.06666666666667             4
    0.40000000000000   -0.11111111111111    0.06666666666667             4
    0.46666666666667   -0.11111111111111    0.06666666666667             4
   -0.46666666666667   -0.11111111111111    0.06666666666667             4
   -0.26666666666667   -0.11111111111111    0.06666666666667             4
   -0.20000000000000   -0.11111111111111    0.06666666666667             4
   -0.13333333333333   -0.11111111111111    0.06666666666667             4
    0.06666666666667   -0.05555555555555    0.06666666666667             2
    0.13333333333333   -0.05555555555555    0.06666666666667             4
    0.20000000000000   -0.05555555555555    0.06666666666667             4
    0.40000000000000   -0.05555555555555    0.06666666666667             4
    0.46666666666667   -0.05555555555556    0.06666666666667             4
   -0.46666666666667   -0.05555555555555    0.06666666666667             4
   -0.26666666666667   -0.05555555555555    0.06666666666667             4
   -0.20000000000000   -0.05555555555555    0.06666666666667             4
   -0.13333333333333   -0.05555555555555    0.06666666666667             4
    0.13333333333333    0.00000000000000    0.13333333333333             2
    0.20000000000000    0.00000000000000    0.13333333333333             8
    0.26666666666667    0.00000000000000    0.13333333333333             4
    0.40000000000000    0.00000000000000    0.13333333333333             4
    0.46666666666667    0.00000000000000    0.13333333333333             4
   -0.46666666666667    0.00000000000000    0.13333333333333             8
   -0.40000000000000    0.00000000000000    0.13333333333333             4
   -0.26666666666667    0.00000000000000    0.13333333333333             4
   -0.20000000000000    0.00000000000000    0.13333333333333             4
   -0.13333333333333    0.00000000000000    0.13333333333333             2
    0.13333333333333    0.05555555555556    0.13333333333333             2
    0.20000000000000    0.05555555555556    0.13333333333333             8
    0.26666666666667    0.05555555555556    0.13333333333333             4
    0.33333333333333    0.05555555555556    0.13333333333333             8
    0.40000000000000    0.05555555555556    0.13333333333333             4
    0.46666666666667    0.05555555555556    0.13333333333333             4
   -0.46666666666667    0.05555555555556    0.13333333333333             8
   -0.40000000000000    0.05555555555556    0.13333333333333             4
   -0.33333333333333    0.05555555555556    0.13333333333333             8
   -0.26666666666667    0.05555555555556    0.13333333333333             4
   -0.20000000000000    0.05555555555556    0.13333333333333             4
   -0.13333333333333    0.05555555555556    0.13333333333333             4
    0.13333333333333    0.11111111111111    0.13333333333333             2
    0.20000000000000    0.11111111111111    0.13333333333333             8
    0.26666666666667    0.11111111111111    0.13333333333333             4
    0.33333333333333    0.11111111111111    0.13333333333333             8
    0.40000000000000    0.11111111111111    0.13333333333333             4
    0.46666666666667    0.11111111111111    0.13333333333333             4
   -0.46666666666667    0.11111111111111    0.13333333333333             8
   -0.40000000000000    0.11111111111111    0.13333333333333             4
   -0.33333333333333    0.11111111111111    0.13333333333333             8
   -0.26666666666667    0.11111111111111    0.13333333333333             4
   -0.20000000000000    0.11111111111111    0.13333333333333             4
   -0.13333333333333    0.11111111111111    0.13333333333333             4
    0.13333333333333    0.16666666666667    0.13333333333333             2
    0.20000000000000    0.16666666666667    0.13333333333333             8
    0.26666666666667    0.16666666666667    0.13333333333333             4
    0.33333333333333    0.16666666666667    0.13333333333333             8
    0.40000000000000    0.16666666666667    0.13333333333333             4
    0.46666666666667    0.16666666666667    0.13333333333333             4
   -0.46666666666667    0.16666666666667    0.13333333333333             4
   -0.40000000000000    0.16666666666667    0.13333333333333             4
   -0.33333333333333    0.16666666666667    0.13333333333333             8
   -0.26666666666667    0.16666666666667    0.13333333333333             4
   -0.20000000000000    0.16666666666667    0.13333333333333             4
   -0.13333333333333    0.16666666666667    0.13333333333333             4
    0.13333333333333    0.22222222222222    0.13333333333333             2
    0.20000000000000    0.22222222222222    0.13333333333333             8
    0.26666666666667    0.22222222222222    0.13333333333333             4
    0.33333333333333    0.22222222222222    0.13333333333333             8
    0.40000000000000    0.22222222222222    0.13333333333333             4
    0.46666666666667    0.22222222222222    0.13333333333333             4
   -0.40000000000000    0.22222222222222    0.13333333333333             4
   -0.33333333333333    0.22222222222222    0.13333333333333             8
   -0.26666666666667    0.22222222222222    0.13333333333333             4
   -0.20000000000000    0.22222222222222    0.13333333333333             4
   -0.13333333333333    0.22222222222222    0.13333333333333             4
    0.13333333333333    0.27777777777778    0.13333333333333             2
    0.20000000000000    0.27777777777778    0.13333333333333             8
    0.26666666666667    0.27777777777778    0.13333333333333             4
    0.33333333333333    0.27777777777778    0.13333333333333             8
    0.40000000000000    0.27777777777778    0.13333333333333             4
    0.46666666666667    0.27777777777778    0.13333333333333             4
   -0.40000000000000    0.27777777777778    0.13333333333333             4