 vasp.5.3.2 13Sep12 (build Apr 01 2013 09:32:17) complex                        
  
 POSCAR found type information on POSCAR  As Ga
 POSCAR found :  2 types and       2 ions
 LDA part: xc-table for Pade appr. of Perdew


 VERY BAD NEWS! internal error in subroutine IBZKPT:
 Reciprocal lattice and k-lattice belong to different class of lattices. Often results are still useful...      12
 POSCAR, INCAR and KPOINTS ok, starting setup
 WARNING: small aliasing (wrap around) errors must be expected
 FFT: planning ...
 WAVECAR not read
 entering main loop
       N       E                     dE             d eps       ncg     rms          rms(c)
DAV:   1     0.660714074386E+02    0.66071E+02   -0.67752E+03 22307   0.152E+03
DAV:   2    -0.324529240176E+01   -0.69317E+02   -0.67084E+02 23657   0.270E+02
DAV:   3    -0.846463632187E+01   -0.52193E+01   -0.51970E+01 28042   0.687E+01
DAV:   4    -0.853822450193E+01   -0.73588E-01   -0.73572E-01 24377   0.928E+00
DAV:   5    -0.853891364845E+01   -0.68915E-03   -0.68914E-03 27277   0.876E-01    0.240E+00
RMM:   6    -0.840320323057E+01    0.13571E+00   -0.22311E-01 23747   0.443E+00    0.130E+00
RMM:   7    -0.838251863879E+01    0.20685E-01   -0.75499E-02 23567   0.139E+00    0.458E-01
RMM:   8    -0.838137431719E+01    0.11443E-02   -0.85267E-03 24364   0.106E+00    0.708E-02
RMM:   9    -0.838159691994E+01   -0.22260E-03   -0.73688E-04 22379   0.341E-01    0.294E-02
RMM:  10    -0.838172468148E+01   -0.12776E-03   -0.27452E-04 16680   0.143E-01    0.846E-03
WARNING in EDDRMM: call to ZHEGV failed, returncode =   6  3  8
RMM:  11    -0.838172141803E+01    0.32635E-05   -0.62628E-05 14702   0.842E-02
   1 F= -.83817214E+01 E0= -.83818719E+01  d E =-.838172E+01
 curvature:   0.00 expect dE= 0.000E+00 dE for cont linesearch  0.000E+00
 trial: gam= 0.00000 g(F)=  0.900E-42 g(S)=  0.362E-02 ort = 0.000E+00 (trialstep = 0.100E+01)
 search vector abs. value=  0.362E-02
 bond charge predicted
       N       E                     dE             d eps       ncg     rms          rms(c)
DAV:   1    -0.842275168434E+01   -0.41027E-01   -0.58155E-01 28952   0.169E+01    0.113E+00
RMM:   2    -0.839265604481E+01    0.30096E-01   -0.55814E-02 24031   0.356E+00    0.529E-01
RMM:   3    -0.838459970564E+01    0.80563E-02   -0.12421E-02 22609   0.141E+00    0.103E-01
RMM:   4    -0.838379362804E+01    0.80608E-03   -0.70974E-04 23425   0.373E-01    0.371E-02
RMM:   5    -0.838367363679E+01    0.11999E-03   -0.15009E-04 14909   0.155E-01    0.295E-03
RMM:   6    -0.838367185258E+01    0.17842E-05   -0.39917E-05 13763   0.440E-02
   2 F= -.83836719E+01 E0= -.83838278E+01  d E =-.195043E-02
 trial-energy change:   -0.001950  1 .order   -0.001255   -0.003622    0.001113
 step:   0.8668(harm=  0.7650)  dis= 0.00000  next Energy=    -8.383744 (dE=-0.202E-02)
 bond charge predicted
       N       E                     dE             d eps       ncg     rms          rms(c)
DAV:   1    -0.838440158368E+01   -0.72795E-03   -0.99707E-03 28357   0.214E+00    0.151E-01
RMM:   2    -0.838387351813E+01    0.52807E-03   -0.99383E-04 21972   0.477E-01    0.700E-02
RMM:   3    -0.838373210572E+01    0.14141E-03   -0.17972E-04 14434   0.178E-01    0.146E-02
RMM:   4    -0.838372116155E+01    0.10944E-04   -0.24360E-05 11589   0.570E-02    0.523E-03
RMM:   5    -0.838371968321E+01    0.14783E-05   -0.15268E-05  8854   0.310E-02
   3 F= -.83837197E+01 E0= -.83838752E+01  d E =-.199827E-02
 curvature:  -0.31 expect dE=-0.319E-04 dE for cont linesearch -0.319E-04
 trial: gam=-0.13995 g(F)=  0.115E-41 g(S)=  0.103E-03 ort = 0.609E-03 (trialstep = 0.973E+00)
 search vector abs. value=  0.290E-05
 reached required accuracy - stopping structural energy minimisation
