unknown system                          
           1
     2.855274   -2.855274    0.000000
    -2.855274    0.000000   -2.855274
     2.855274    2.855274    0.000000
   As   Ga
   1   1
unknown system                          
           1
     2.870683   -2.870683    0.000000
    -2.870683    0.000000   -2.870683
     2.870683    2.870683    0.000000
   As   Ga
   1   1
Direct configuration=     1
   0.75000156  0.50000104  0.25000052
   0.00000000  0.00000000  0.00000000
unknown system                          
           1
     2.868630   -2.868630    0.000000
    -2.868630    0.000000   -2.868630
     2.868630    2.868630    0.000000
   As   Ga
   1   1
Direct configuration=     2
   0.75000156  0.50000104  0.25000052
   0.00000000  0.00000000  0.00000000
unknown system                          
           1
     2.868630   -2.868630    0.000000
    -2.868630    0.000000   -2.868630
     2.868630    2.868630    0.000000
   As   Ga
   1   1
Direct configuration=     3
   0.75000156  0.50000104  0.25000052
   0.00000000  0.00000000  0.00000000
