 vasp.5.3.2 13Sep12 (build Mar 19 2013 12:21:59) complex                        
  
 executed on             LinuxIFC date 2013.08.13  19:27:54
 running on    8 total cores
 distrk:  each k-point on    8 cores,    1 groups
 distr:  one band on NCORES_PER_BAND=   4 cores,    2 groups


--------------------------------------------------------------------------------------------------------


 INCAR:
 POTCAR:  PAW_PBE Ba_sv 06Sep2000                 
 POTCAR:  PAW_PBE O 08Apr2002                     
 POTCAR:  PAW_PBE S 17Jan2003                     
 POTCAR:  PAW_PBE Ba_sv 06Sep2000                 
   VRHFIN =Ba: 5s5p6s                                                           
   LEXCH  = PE                                                                  
   EATOM  =   700.2255 eV,   51.4651 Ry                                         
                                                                                
   TITEL  = PAW_PBE Ba_sv 06Sep2000                                             
   LULTRA =        F    use ultrasoft PP ?                                      
   IUNSCR =        1    unscreen: 0-lin 1-nonlin 2-no                           
   RPACOR =    2.400    partial core radius                                     
   POMASS =  137.327; ZVAL   =   10.000    mass and valenz                      
   RCORE  =    2.800    outmost cutoff radius                                   
   RWIGS  =    3.740; RWIGS  =    1.979    wigner-seitz radius (au A)           
   ENMAX  =  187.210; ENMIN  =  140.408 eV                                      
   RCLOC  =    2.516    cutoff for local pot                                    
   LCOR   =        T    correct aug charges                                     
   LPAW   =        T    paw PP                                                  
   EAUG   =  351.165                                                            
   DEXC   =     .000                                                            
   RMAX   =    3.370    core radius for proj-oper                               
   RAUG   =    1.300    factor for augmentation sphere                          
   RDEP   =    2.976    radius for radial grids                                 
   QCUT   =   -3.709; QGAM   =    7.419    optimization parameters              
                                                                                
   Description                                                                  
     l     E      TYP  RCUT    TYP  RCUT                                        
     0   .000     23  2.800                                                     
     0   .000     23  2.800                                                     
     1   .000     23  2.700                                                     
     1  2.000     23  2.700                                                     
     2   .000     23  2.700                                                     
     2   .000     23  2.700                                                     
  local pseudopotential read in
  partial core-charges read in
  atomic valenz-charges read in
  non local Contribution for L=           0  read in
    real space projection operators read in
  non local Contribution for L=           0  read in
    real space projection operators read in
  non local Contribution for L=           1  read in
    real space projection operators read in
  non local Contribution for L=           1  read in
    real space projection operators read in
  non local Contribution for L=           2  read in
    real space projection operators read in
  non local Contribution for L=           2  read in
    real space projection operators read in
    PAW grid and wavefunctions read in
 
   number of l-projection  operators is LMAX  =           6
   number of lm-projection operators is LMMAX =          18
 
 POTCAR:  PAW_PBE O 08Apr2002                     
   VRHFIN =O: s2p4                                                              
   LEXCH  = PE                                                                  
   EATOM  =   432.3788 eV,   31.7789 Ry                                         
                                                                                
   TITEL  = PAW_PBE O 08Apr2002                                                 
   LULTRA =        F    use ultrasoft PP ?                                      
   IUNSCR =        0    unscreen: 0-lin 1-nonlin 2-no                           
   RPACOR =     .000    partial core radius                                     
   POMASS =   16.000; ZVAL   =    6.000    mass and valenz                      
   RCORE  =    1.520    outmost cutoff radius                                   
   RWIGS  =    1.550; RWIGS  =     .820    wigner-seitz radius (au A)           
   ENMAX  =  400.000; ENMIN  =  300.000 eV                                      
   ICORE  =        2    local potential                                         
   LCOR   =        T    correct aug charges                                     
   LPAW   =        T    paw PP                                                  
   EAUG   =  605.392                                                            
   DEXC   =     .000                                                            
   RMAX   =    2.264    core radius for proj-oper                               
   RAUG   =    1.300    factor for augmentation sphere                          
   RDEP   =    1.550    radius for radial grids                                 
   QCUT   =   -5.520; QGAM   =   11.041    optimization parameters              
                                                                                
   Description                                                                  
     l     E      TYP  RCUT    TYP  RCUT                                        
     0   .000     23  1.200                                                     
     0  -.700     23  1.200                                                     
     1   .000     23  1.520                                                     
     1   .600     23  1.520                                                     
     2   .000      7  1.500                                                     
  local pseudopotential read in
  atomic valenz-charges read in
  non local Contribution for L=           0  read in
    real space projection operators read in
  non local Contribution for L=           0  read in
    real space projection operators read in
  non local Contribution for L=           1  read in
    real space projection operators read in
  non local Contribution for L=           1  read in
    real space projection operators read in
    PAW grid and wavefunctions read in
 
   number of l-projection  operators is LMAX  =           4
   number of lm-projection operators is LMMAX =           8
 
 POTCAR:  PAW_PBE S 17Jan2003                     
   VRHFIN =S : s2p4                                                             
   LEXCH  = PE                                                                  
   EATOM  =   276.8230 eV,   20.3459 Ry                                         
                                                                                
   TITEL  = PAW_PBE S 17Jan2003                                                 
   LULTRA =        F    use ultrasoft PP ?                                      
   IUNSCR =        1    unscreen: 0-lin 1-nonlin 2-no                           
   RPACOR =    1.500    partial core radius                                     
   POMASS =   32.066; ZVAL   =    6.000    mass and valenz                      
   RCORE  =    1.900    outmost cutoff radius                                   
   RWIGS  =    2.200; RWIGS  =    1.164    wigner-seitz radius (au A)           
   ENMAX  =  280.000; ENMIN  =  194.016 eV                                      
   ICORE  =        2    local potential                                         
   LCOR   =        T    correct aug charges                                     
   LPAW   =        T    paw PP                                                  
   EAUG   =  335.092                                                            
   DEXC   =     .000                                                            
   RMAX   =    2.867    core radius for proj-oper                               
   RAUG   =    1.300    factor for augmentation sphere                          
   RDEP   =    1.954    radius for radial grids                                 
   QCUT   =   -4.360; QGAM   =    8.721    optimization parameters              
                                                                                
   Description                                                                  
     l     E      TYP  RCUT    TYP  RCUT                                        
     0   .000     23  1.900                                                     
     0   .000     23  1.900                                                     
     1   .000     23  1.900                                                     
     1   .000     23  1.900                                                     
     2   .000     23  1.900                                                     
  local pseudopotential read in
  partial core-charges read in
  atomic valenz-charges read in
  non local Contribution for L=           0  read in
    real space projection operators read in
  non local Contribution for L=           0  read in
    real space projection operators read in
  non local Contribution for L=           1  read in
    real space projection operators read in
  non local Contribution for L=           1  read in
    real space projection operators read in
    PAW grid and wavefunctions read in
 
   number of l-projection  operators is LMAX  =           4
   number of lm-projection operators is LMMAX =           8
 
 Optimization of the real space projectors (new method)

 maximal supplied QI-value         = 13.42
 optimisation between [QCUT,QGAM] = [ 11.40, 28.58] = [ 36.42,228.71] Ry 
 Optimized for a Real-space Cutoff    1.54 Angstroem

   l    n(q)    QCUT    max X(q) W(low)/X(q) W(high)/X(q)  e(spline) 
   0     13    11.404     7.198    0.12E-04    0.63E-05    0.11E-05
   0     13    11.404    15.603    0.34E-04    0.64E-05    0.22E-05
   1     13    11.404     3.746    0.39E-05    0.27E-05    0.15E-05
   1     13    11.404     4.362    0.11E-04    0.19E-04    0.69E-05
   2     12    11.404     5.782    0.11E-04    0.25E-04    0.11E-05
   2     12    11.404    65.505    0.55E-04    0.13E-03    0.55E-05
 Optimization of the real space projectors (new method)

 maximal supplied QI-value         = 24.76
 optimisation between [QCUT,QGAM] = [ 11.39, 28.47] = [ 36.31,226.95] Ry 
 Optimized for a Real-space Cutoff    0.93 Angstroem

   l    n(q)    QCUT    max X(q) W(low)/X(q) W(high)/X(q)  e(spline) 
   0      8    11.387     4.192    0.42E-04    0.17E-04    0.17E-07
   0      8    11.387     8.473    0.27E-03    0.17E-03    0.11E-06
   1      7    11.387     2.474    0.76E-04    0.10E-03    0.15E-07
   1      7    11.387     3.912    0.34E-03    0.52E-03    0.97E-07
 Optimization of the real space projectors (new method)

 maximal supplied QI-value         = 19.84
 optimisation between [QCUT,QGAM] = [ 11.31, 28.57] = [ 35.82,228.61] Ry 
 Optimized for a Real-space Cutoff    1.08 Angstroem

   l    n(q)    QCUT    max X(q) W(low)/X(q) W(high)/X(q)  e(spline) 
   0      9    11.310     5.487    0.13E-04    0.62E-06    0.84E-08
   0      9    11.310    85.627    0.68E-04    0.52E-04    0.71E-07
   1      9    11.310     3.530    0.85E-05    0.12E-04    0.17E-07
   1      9    11.310    42.714    0.80E-04    0.47E-04    0.25E-06
PAW_PBE Ba_sv 06Sep2000                 :
 energy of atom  1       EATOM= -700.2255
 kinetic energy error for atom=    0.0005 (will be added to EATOM!!)
PAW_PBE O 08Apr2002                     :
 energy of atom  2       EATOM= -432.3788
 kinetic energy error for atom=    0.0224 (will be added to EATOM!!)
PAW_PBE S 17Jan2003                     :
 energy of atom  3       EATOM= -276.8230
 kinetic energy error for atom=    0.0020 (will be added to EATOM!!)
 
 
 POSCAR: S Ba O                                  
  positions in direct lattice
  No initial velocities read in
 exchange correlation table for  LEXCH =        8
   RHO(1)=    0.500       N(1)  =     2000
   RHO(2)=  100.500       N(2)  =     4000
 


--------------------------------------------------------------------------------------------------------


 ion  position               nearest neighbor table
   1  0.184  0.250  0.658-  11 2.82   5 2.85  16 2.85   7 2.87  18 2.87  19 2.87   6 2.95  15 2.95
                             8 3.11   8 3.11  21 3.57  22 3.59  22 3.59  24 3.74  24 3.74   3 4.69
   2  0.316  0.750  0.158-  12 2.82   6 2.85  15 2.85   8 2.87  17 2.87  20 2.87  16 2.95   5 2.95
                             7 3.11   7 3.11  22 3.57  21 3.59  21 3.59  23 3.74  23 3.74   4 4.69
   3  0.684  0.250  0.842-  13 2.82  18 2.85  19 2.85   9 2.87   5 2.87  16 2.87  17 2.95  20 2.95
                            10 3.11  10 3.11  23 3.57  24 3.59  24 3.59  22 3.74  22 3.74   1 4.69
   4  0.816  0.750  0.342-  14 2.82  17 2.85  20 2.85  10 2.87   6 2.87  15 2.87  19 2.95  18 2.95
                             9 3.11   9 3.11  24 3.57  23 3.59  23 3.59  21 3.74  21 3.74   2 4.69
   5  0.419  0.532  0.810-  22 1.51   1 2.85   3 2.87   2 2.95
   6  0.081  0.468  0.310-  21 1.51   2 2.85   4 2.87   1 2.95
   7  0.188  0.250  0.052-  21 1.49   1 2.87   2 3.11   2 3.11
   8  0.312  0.750  0.552-  22 1.49   2 2.87   1 3.11   1 3.11
   9  0.688  0.250  0.448-  23 1.49   3 2.87   4 3.11   4 3.11
  10  0.812  0.750  0.948-  24 1.49   4 2.87   3 3.11   3 3.11
  11  0.417  0.250  0.398-  23 1.48   1 2.82
  12  0.083  0.750  0.898-  24 1.48   2 2.82
  13  0.917  0.250  0.102-  21 1.48   3 2.82
  14  0.583  0.750  0.602-  22 1.48   4 2.82
  15  0.081  0.032  0.310-  21 1.51   2 2.85   4 2.87   1 2.95
  16  0.419  0.968  0.810-  22 1.51   1 2.85   3 2.87   2 2.95
  17  0.581  0.468  0.190-  23 1.51   4 2.85   2 2.87   3 2.95
  18  0.919  0.532  0.690-  24 1.51   3 2.85   1 2.87   4 2.95
  19  0.919  0.968  0.690-  24 1.51   3 2.85   1 2.87   4 2.95
  20  0.581  0.032  0.190-  23 1.51   4 2.85   2 2.87   3 2.95
  21  0.065  0.250  0.189-  13 1.48   7 1.49   6 1.51  15 1.51   1 3.57   2 3.59   2 3.59   4 3.74
                             4 3.74
  22  0.435  0.750  0.689-  14 1.48   8 1.49  16 1.51   5 1.51   2 3.57   1 3.59   1 3.59   3 3.74
                             3 3.74
  23  0.565  0.250  0.311-  11 1.48   9 1.49  17 1.51  20 1.51   3 3.57   4 3.59   4 3.59   2 3.74
                             2 3.74
  24  0.935  0.750  0.811-  12 1.48  10 1.49  19 1.51  18 1.51   4 3.57   3 3.59   3 3.59   1 3.74
                             1 3.74
 
  LATTYP: Found a simple orthorhombic cell.
 ALAT       =     5.5673310000
 B/A-ratio  =     1.3058009305
 C/A-ratio  =     1.6159917562
  
  Lattice vectors:
  
 A1 = (   0.0000000000,   5.5673310000,   0.0000000000)
 A2 = (   0.0000000000,   0.0000000000,  -7.2698260000)
 A3 = (  -8.9967610000,   0.0000000000,   0.0000000000)


Analysis of symmetry for initial positions (statically):
=====================================================================
 Subroutine PRICEL returns:
 Original cell was already a primitive cell.
 

 Routine SETGRP: Setting up the symmetry group for a 
 simple orthorhombic supercell.


 Subroutine GETGRP returns: Found  8 space group operations
 (whereof  2 operations were pure point group operations)
 out of a pool of  8 trial point group operations.


The static configuration has the point symmetry S_2 .
 The point group associated with its full space group is D_2h.


Analysis of symmetry for dynamics (positions and initial velocities):
=====================================================================
 Subroutine PRICEL returns:
 Original cell was already a primitive cell.
 

 Routine SETGRP: Setting up the symmetry group for a 
 simple orthorhombic supercell.


 Subroutine GETGRP returns: Found  8 space group operations
 (whereof  2 operations were pure point group operations)
 out of a pool of  8 trial point group operations.


The dynamic configuration has the point symmetry S_2 .
 The point group associated with its full space group is D_2h.
 
 
 KPOINTS: KPOINTS                                 

Automatic generation of k-mesh.
Space group operators:
 irot       det(A)        alpha          n_x          n_y          n_z        tau_x        tau_y        tau_z
    1     1.000000     0.000000     1.000000     0.000000     0.000000     0.000000     0.000000     0.000000
    2    -1.000000     0.000000     1.000000     0.000000     0.000000     0.000000     0.000000     0.000000
    3     1.000000   180.000000     1.000000     0.000000     0.000000    -0.500001     0.500003    -0.499998
    4    -1.000000   180.000000     1.000000     0.000000     0.000000    -0.500001     0.500001    -0.499999
    5     1.000000   180.000000     0.000000     0.000000     1.000000    -0.500001     0.000002    -0.500001
    6    -1.000000   180.000000     0.000000     0.000000     1.000000    -0.500001     0.000000    -0.500000
    7     1.000000   179.999999     0.000000     1.000000     0.000000     0.000000     0.500001     0.000000
    8    -1.000000   179.999999     0.000000     1.000000     0.000000     0.000000     0.500003     0.000000
 
 Subroutine IBZKPT returns following result:
 ===========================================
 
 Found     60 irreducible k-points:
 
 Following reciprocal coordinates:
            Coordinates               Weight
  0.000000  0.000000  0.000000      1.000000
  0.200000  0.000000  0.000000      2.000000
  0.400000  0.000000  0.000000      2.000000
  0.000000  0.111111  0.000000      2.000000
  0.200000  0.111111  0.000000      4.000000
  0.400000  0.111111  0.000000      4.000000
  0.000000  0.222222  0.000000      2.000000
  0.200000  0.222222  0.000000      4.000000
  0.400000  0.222222  0.000000      4.000000
  0.000000  0.333333  0.000000      2.000000
  0.200000  0.333333  0.000000      4.000000
  0.400000  0.333333  0.000000      4.000000
  0.000000  0.444444  0.000000      2.000000
  0.200000  0.444444  0.000000      4.000000
  0.400000  0.444444  0.000000      4.000000
  0.000000  0.000000  0.142857      2.000000
  0.200000  0.000000  0.142857      4.000000
  0.400000  0.000000  0.142857      4.000000
  0.000000  0.111111  0.142857      4.000000
  0.200000  0.111111  0.142857      8.000000
  0.400000  0.111111  0.142857      8.000000
  0.000000  0.222222  0.142857      4.000000
  0.200000  0.222222  0.142857      8.000000
  0.400000  0.222222  0.142857      8.000000
  0.000000  0.333333  0.142857      4.000000
  0.200000  0.333333  0.142857      8.000000
  0.400000  0.333333  0.142857      8.000000
  0.000000  0.444444  0.142857      4.000000
  0.200000  0.444444  0.142857      8.000000
  0.400000  0.444444  0.142857      8.000000
  0.000000  0.000000  0.285714      2.000000
  0.200000  0.000000  0.285714      4.000000
  0.400000  0.000000  0.285714      4.000000
  0.000000  0.111111  0.285714      4.000000
  0.200000  0.111111  0.285714      8.000000
  0.400000  0.111111  0.285714      8.000000
  0.000000  0.222222  0.285714      4.000000
  0.200000  0.222222  0.285714      8.000000
  0.400000  0.222222  0.285714      8.000000
  0.000000  0.333333  0.285714      4.000000
  0.200000  0.333333  0.285714      8.000000
  0.400000  0.333333  0.285714      8.000000
  0.000000  0.444444  0.285714      4.000000
  0.200000  0.444444  0.285714      8.000000
  0.400000  0.444444  0.285714      8.000000
  0.000000  0.000000  0.428571      2.000000
  0.200000  0.000000  0.428571      4.000000
  0.400000  0.000000  0.428571      4.000000
  0.000000  0.111111  0.428571      4.000000
  0.200000  0.111111  0.428571      8.000000
  0.400000  0.111111  0.428571      8.000000
  0.000000  0.222222  0.428571      4.000000
  0.200000  0.222222  0.428571      8.000000
  0.400000  0.222222  0.428571      8.000000
  0.000000  0.333333  0.428571      4.000000
  0.200000  0.333333  0.428571      8.000000
  0.400000  0.333333  0.428571      8.000000
  0.000000  0.444444  0.428571      4.000000
  0.200000  0.444444  0.428571      8.000000
  0.400000  0.444444  0.428571      8.000000
 
 Following cartesian coordinates:
            Coordinates               Weight
  0.000000  0.000000  0.000000      1.000000
  0.022230  0.000000  0.000000      2.000000
  0.044460  0.000000  0.000000      2.000000
  0.000000  0.019958  0.000000      2.000000
  0.022230  0.019958  0.000000      4.000000
  0.044460  0.019958  0.000000      4.000000
  0.000000  0.039915  0.000000      2.000000
  0.022230  0.039915  0.000000      4.000000
  0.044460  0.039915  0.000000      4.000000
  0.000000  0.059873  0.000000      2.000000
  0.022230  0.059873  0.000000      4.000000
  0.044460  0.059873  0.000000      4.000000
  0.000000  0.079831  0.000000      2.000000
  0.022230  0.079831  0.000000      4.000000
  0.044460  0.079831  0.000000      4.000000
  0.000000  0.000000  0.019651      2.000000
  0.022230  0.000000  0.019651      4.000000
  0.044460  0.000000  0.019651      4.000000
  0.000000  0.019958  0.019651      4.000000
  0.022230  0.019958  0.019651      8.000000
  0.044460  0.019958  0.019651      8.000000
  0.000000  0.039915  0.019651      4.000000
  0.022230  0.039915  0.019651      8.000000
  0.044460  0.039915  0.019651      8.000000
  0.000000  0.059873  0.019651      4.000000
  0.022230  0.059873  0.019651      8.000000
  0.044460  0.059873  0.019651      8.000000
  0.000000  0.079831  0.019651      4.000000
  0.022230  0.079831  0.019651      8.000000
  0.044460  0.079831  0.019651      8.000000
  0.000000  0.000000  0.039301      2.000000
  0.022230  0.000000  0.039301      4.000000
  0.044460  0.000000  0.039301      4.000000
  0.000000  0.019958  0.039301      4.000000
  0.022230  0.019958  0.039301      8.000000
  0.044460  0.019958  0.039301      8.000000
  0.000000  0.039915  0.039301      4.000000
  0.022230  0.039915  0.039301      8.000000
  0.044460  0.039915  0.039301      8.000000
  0.000000  0.059873  0.039301      4.000000
  0.022230  0.059873  0.039301      8.000000
  0.044460  0.059873  0.039301      8.000000
  0.000000  0.079831  0.039301      4.000000
  0.022230  0.079831  0.039301      8.000000
  0.044460  0.079831  0.039301      8.000000
  0.000000  0.000000  0.058952      2.000000
  0.022230  0.000000  0.058952      4.000000
  0.044460  0.000000  0.058952      4.000000
  0.000000  0.019958  0.058952      4.000000
  0.022230  0.019958  0.058952      8.000000
  0.044460  0.019958  0.058952      8.000000
  0.000000  0.039915  0.058952      4.000000
  0.022230  0.039915  0.058952      8.000000
  0.044460  0.039915  0.058952      8.000000
  0.000000  0.059873  0.058952      4.000000
  0.022230  0.059873  0.058952      8.000000
  0.044460  0.059873  0.058952      8.000000
  0.000000  0.079831  0.058952      4.000000
  0.022230  0.079831  0.058952      8.000000
  0.044460  0.079831  0.058952      8.000000
 


--------------------------------------------------------------------------------------------------------




 Dimension of arrays:
   k-points           NKPTS =     60   k-points in BZ     NKDIM =     60   number of bands    NBANDS=     96
   number of dos      NEDOS =    301   number of ions     NIONS =     24
   non local maximal  LDIM  =      6   non local SUM 2l+1 LMDIM =     18
   total plane-waves  NPLWV = 158760
   max r-space proj   IRMAX =   6707   max aug-charges    IRDMAX=  10100
   dimension x,y,z NGX =    70 NGY =   42 NGZ =   54
   dimension x,y,z NGXF=    96 NGYF=   60 NGZF=   80
   support grid    NGXF=    96 NGYF=   60 NGZF=   80
   ions per type =               4  16   4
 NGX,Y,Z   is equivalent  to a cutoff of  12.93, 12.54, 12.35 a.u.
 NGXF,Y,Z  is equivalent  to a cutoff of  17.74, 17.92, 18.29 a.u.


 I would recommend the setting:
   dimension x,y,z NGX =    66 NGY =   41 NGZ =   53
 SYSTEM =  unknown system                          
 POSCAR =  S Ba O                                  

 Startparameter for this run:
   NWRITE =      2    write-flag & timer
   PREC   = high      normal or accurate (medium, high low for compatibility)
   ISTART =      0    job   : 0-new  1-cont  2-samecut
   ICHARG =      1    charge: 1-file 2-atom 10-const
   ISPIN  =      1    spin polarized calculation?
   LNONCOLLINEAR =      F non collinear calculations
   LSORBIT =      F    spin-orbit coupling
   INIWAV =      1    electr: 0-lowe 1-rand  2-diag
   LASPH  =      F    aspherical Exc in radial PAW
   METAGGA=      F    non-selfconsistent MetaGGA calc.

 Electronic Relaxation 1
   ENCUT  =  500.0 eV  36.75 Ry    6.06 a.u.  16.40 10.15 13.25*2*pi/ulx,y,z
   ENINI  =  500.0     initial cutoff
   ENAUG  =  605.4 eV  augmentation charge cutoff
   NELM   =     60;   NELMIN=  2; NELMDL= -5     # of ELM steps 
   EDIFF  = 0.1E-03   stopping-criterion for ELM
   LREAL  =      T    real-space projection
   NLSPLINE    = F    spline interpolate recip. space projectors
   LCOMPAT=      F    compatible to vasp.4.4
   GGA_COMPAT  = T    GGA compatible to vasp.4.4-vasp.4.6
   LMAXPAW     = -100 max onsite density
   LMAXMIX     =    2 max onsite mixed and CHGCAR
   VOSKOWN=      0    Vosko Wilk Nusair interpolation
   ROPT   =   -0.00040  -0.00040  -0.00040
 Ionic relaxation
   EDIFFG = 0.1E-02   stopping-criterion for IOM
   NSW    =    100    number of steps for IOM
   NBLOCK =      1;   KBLOCK =    100    inner block; outer block 
   IBRION =      2    ionic relax: 0-MD 1-quasi-New 2-CG
   NFREE  =      1    steps in history (QN), initial steepest desc. (CG)
   ISIF   =      3    stress and relaxation
   IWAVPR =     11    prediction:  0-non 1-charg 2-wave 3-comb
   ISYM   =      1    0-nonsym 1-usesym 2-fastsym
   LCORR  =      T    Harris-Foulkes like correction to forces

   POTIM  = 0.5000    time-step for ionic-motion
   TEIN   =    0.0    initial temperature
   TEBEG  =    0.0;   TEEND  =   0.0 temperature during run
   SMASS  =  -3.00    Nose mass-parameter (am)
   estimated Nose-frequenzy (Omega)   =  0.10E-29 period in steps =****** mass=  -0.185E-26a.u.
   SCALEE = 1.0000    scale energy and forces
   NPACO  =    256;   APACO  = 16.0  distance and # of slots for P.C.
   PSTRESS=    0.0 pullay stress

  Mass of Ions in am
   POMASS = 137.33 16.00 32.07
  Ionic Valenz
   ZVAL   =  10.00  6.00  6.00
  Atomic Wigner-Seitz radii
   RWIGS  =  -1.00 -1.00 -1.00
  virtual crystal weights 
   VCA    =   1.00  1.00  1.00
   NELECT =     160.0000    total number of electrons
   NUPDOWN=      -1.0000    fix difference up-down

 DOS related values:
   EMIN   =  10.00;   EMAX   =-10.00  energy-range for DOS
   EFERMI =   0.00
   ISMEAR =     0;   SIGMA  =   0.20  broadening in eV -4-tet -1-fermi 0-gaus

 Electronic relaxation 2 (details)
   IALGO  =     68    algorithm
   LDIAG  =      T    sub-space diagonalisation (order eigenvalues)
   LSUBROT=      T    optimize rotation matrix (better conditioning)
   TURBO    =      0    0=normal 1=particle mesh
   IRESTART =      0    0=no restart 2=restart with 2 vectors
   NREBOOT  =      0    no. of reboots
   NMIN     =      0    reboot dimension
   EREF     =   0.00    reference energy to select bands
   IMIX   =      4    mixing-type and parameters
     AMIX     =   0.40;   BMIX     =  1.00
     AMIX_MAG =   1.60;   BMIX_MAG =  1.00
     AMIN     =   0.10
     WC   =   100.;   INIMIX=   1;  MIXPRE=   1;  MAXMIX= -45

 Intra band minimization:
   WEIMIN = 0.0010     energy-eigenvalue tresh-hold
   EBREAK =  0.26E-06  absolut break condition
   DEPER  =   0.30     relativ break condition  

   TIME   =   0.40     timestep for ELM

  volume/ion in A,a.u.               =      15.17       102.39
  Fermi-wavevector in a.u.,A,eV,Ry     =   1.244598  2.351949 21.075751  1.549024
  Thomas-Fermi vector in A             =   2.378858
 
 Write flags
   LWAVE  =      F    write WAVECAR
   LCHARG =      T    write CHGCAR
   LVTOT  =      F    write LOCPOT, total local potential
   LVHAR  =      T    write LOCPOT, Hartree potential only
   LELF   =      F    write electronic localiz. function (ELF)
   LORBIT =     11    0 simple, 1 ext, 2 COOP (PROOUT)


 Dipole corrections
   LMONO  =      F    monopole corrections only (constant potential shift)
   LDIPOL =      F    correct potential (dipole corrections)
   IDIPOL =      0    1-x, 2-y, 3-z, 4-all directions 
   EPSILON=  1.0000000 bulk dielectric constant

 Exchange correlation treatment:
   GGA     =    --    GGA type
   LEXCH   =     8    internal setting for exchange type
   VOSKOWN=      0    Vosko Wilk Nusair interpolation
   LHFCALC =     F    Hartree Fock is set to
   LHFONE  =     F    Hartree Fock one center treatment
   AEXX    =    0.0000 exact exchange contribution

 Linear response parameters
   LEPSILON=     F    determine dielectric tensor
   LRPA    =     F    only Hartree local field effects (RPA)
   LNABLA  =     F    use nabla operator in PAW spheres
   LVEL    =     F    velocity operator in full k-point grid
   LINTERFAST=   F  fast interpolation
   KINTER  =     0    interpolate to denser k-point grid
   CSHIFT  =0.1000    complex shift for real part using Kramers Kronig
   OMEGAMAX=  -1.0    maximum frequency
   DEG_THRESHOLD= 0.2000000E-02 threshold for treating states as degnerate
   RTIME   =    0.100 relaxation time in fs

 Orbital magnetization related:
   ORBITALMAG=     F  switch on orbital magnetization
   LCHIMAG   =     F  perturbation theory with respect to B field
   DQ        =  0.001000  dq finite difference perturbation B field



--------------------------------------------------------------------------------------------------------


 conjugate gradient relaxation of ions
 charge density and potential will be updated during run
 non-spin polarized calculation
 RMM-DIIS sequential band-by-band and
  variant of blocked Davidson during initial phase
 perform sub-space diagonalisation
    before iterative eigenvector-optimisation
 modified Broyden-mixing scheme, WC =      100.0
 initial mixing is a Kerker type mixing with AMIX =  0.4000 and BMIX =      1.0000
 Hartree-type preconditioning will be used
 using additional bands           16
 real space projection scheme for non local part
 use partial core corrections
 calculate Harris-corrections to forces 
   (improved forces if not selfconsistent)
 use gradient corrections 
 use of overlap-Matrix (Vanderbilt PP)
 Gauss-broadening in eV      SIGMA  =   0.20


--------------------------------------------------------------------------------------------------------


  energy-cutoff  :      500.00
  volume of cell :      364.13
      direct lattice vectors                 reciprocal lattice vectors
     8.996761000  0.000000000  0.000000000     0.111151113  0.000000000  0.000000000
     0.000000000  5.567331000  0.000000000     0.000000000  0.179619283  0.000000000
     0.000000000  0.000000000  7.269826000     0.000000000  0.000000000  0.137554874

  length of vectors
     8.996761000  5.567331000  7.269826000     0.111151113  0.179619283  0.137554874


 
 k-points in units of 2pi/SCALE and weight: KPOINTS                                 
   0.00000000  0.00000000  0.00000000       0.003
   0.02223022  0.00000000  0.00000000       0.006
   0.04446045  0.00000000  0.00000000       0.006
   0.00000000  0.01995770  0.00000000       0.006
   0.02223022  0.01995770  0.00000000       0.013
   0.04446045  0.01995770  0.00000000       0.013
   0.00000000  0.03991540  0.00000000       0.006
   0.02223022  0.03991540  0.00000000       0.013
   0.04446045  0.03991540  0.00000000       0.013
   0.00000000  0.05987309  0.00000000       0.006
   0.02223022  0.05987309  0.00000000       0.013
   0.04446045  0.05987309  0.00000000       0.013
   0.00000000  0.07983079  0.00000000       0.006
   0.02223022  0.07983079  0.00000000       0.013
   0.04446045  0.07983079  0.00000000       0.013
   0.00000000  0.00000000  0.01965070       0.006
   0.02223022  0.00000000  0.01965070       0.013
   0.04446045  0.00000000  0.01965070       0.013
   0.00000000  0.01995770  0.01965070       0.013
   0.02223022  0.01995770  0.01965070       0.025
   0.04446045  0.01995770  0.01965070       0.025
   0.00000000  0.03991540  0.01965070       0.013
   0.02223022  0.03991540  0.01965070       0.025
   0.04446045  0.03991540  0.01965070       0.025
   0.00000000  0.05987309  0.01965070       0.013
   0.02223022  0.05987309  0.01965070       0.025
   0.04446045  0.05987309  0.01965070       0.025
   0.00000000  0.07983079  0.01965070       0.013
   0.02223022  0.07983079  0.01965070       0.025
   0.04446045  0.07983079  0.01965070       0.025
   0.00000000  0.00000000  0.03930139       0.006
   0.02223022  0.00000000  0.03930139       0.013
   0.04446045  0.00000000  0.03930139       0.013
   0.00000000  0.01995770  0.03930139       0.013
   0.02223022  0.01995770  0.03930139       0.025
   0.04446045  0.01995770  0.03930139       0.025
   0.00000000  0.03991540  0.03930139       0.013
   0.02223022  0.03991540  0.03930139       0.025
   0.04446045  0.03991540  0.03930139       0.025
   0.00000000  0.05987309  0.03930139       0.013
   0.02223022  0.05987309  0.03930139       0.025
   0.04446045  0.05987309  0.03930139       0.025
   0.00000000  0.07983079  0.03930139       0.013
   0.02223022  0.07983079  0.03930139       0.025
   0.04446045  0.07983079  0.03930139       0.025
   0.00000000  0.00000000  0.05895209       0.006
   0.02223022  0.00000000  0.05895209       0.013
   0.04446045  0.00000000  0.05895209       0.013
   0.00000000  0.01995770  0.05895209       0.013
   0.02223022  0.01995770  0.05895209       0.025
   0.04446045  0.01995770  0.05895209       0.025
   0.00000000  0.03991540  0.05895209       0.013
   0.02223022  0.03991540  0.05895209       0.025
   0.04446045  0.03991540  0.05895209       0.025
   0.00000000  0.05987309  0.05895209       0.013
   0.02223022  0.05987309  0.05895209       0.025
   0.04446045  0.05987309  0.05895209       0.025
   0.00000000  0.07983079  0.05895209       0.013
   0.02223022  0.07983079  0.05895209       0.025
   0.04446045  0.07983079  0.05895209       0.025
 
 k-points in reciprocal lattice and weights: KPOINTS                                 
   0.00000000  0.00000000  0.00000000       0.003
   0.20000000  0.00000000  0.00000000       0.006
   0.40000000  0.00000000  0.00000000       0.006
   0.00000000  0.11111111  0.00000000       0.006
   0.20000000  0.11111111  0.00000000       0.013
   0.40000000  0.11111111  0.00000000       0.013
   0.00000000  0.22222222  0.00000000       0.006
   0.20000000  0.22222222  0.00000000       0.013
   0.40000000  0.22222222  0.00000000       0.013
   0.00000000  0.33333333  0.00000000       0.006
   0.20000000  0.33333333  0.00000000       0.013
   0.40000000  0.33333333  0.00000000       0.013
   0.00000000  0.44444444  0.00000000       0.006
   0.20000000  0.44444444  0.00000000       0.013
   0.40000000  0.44444444  0.00000000       0.013
   0.00000000  0.00000000  0.14285714       0.006
   0.20000000  0.00000000  0.14285714       0.013
   0.40000000  0.00000000  0.14285714       0.013
   0.00000000  0.11111111  0.14285714       0.013
   0.20000000  0.11111111  0.14285714       0.025
   0.40000000  0.11111111  0.14285714       0.025
   0.00000000  0.22222222  0.14285714       0.013
   0.20000000  0.22222222  0.14285714       0.025
   0.40000000  0.22222222  0.14285714       0.025
   0.00000000  0.33333333  0.14285714       0.013
   0.20000000  0.33333333  0.14285714       0.025
   0.40000000  0.33333333  0.14285714       0.025
   0.00000000  0.44444444  0.14285714       0.013
   0.20000000  0.44444444  0.14285714       0.025
   0.40000000  0.44444444  0.14285714       0.025
   0.00000000  0.00000000  0.28571429       0.006
   0.20000000  0.00000000  0.28571429       0.013
   0.40000000  0.00000000  0.28571429       0.013
   0.00000000  0.11111111  0.28571429       0.013
   0.20000000  0.11111111  0.28571429       0.025
   0.40000000  0.11111111  0.28571429       0.025
   0.00000000  0.22222222  0.28571429       0.013
   0.20000000  0.22222222  0.28571429       0.025
   0.40000000  0.22222222  0.28571429       0.025
   0.00000000  0.33333333  0.28571429       0.013
   0.20000000  0.33333333  0.28571429       0.025
   0.40000000  0.33333333  0.28571429       0.025
   0.00000000  0.44444444  0.28571429       0.013
   0.20000000  0.44444444  0.28571429       0.025
   0.40000000  0.44444444  0.28571429       0.025
   0.00000000  0.00000000  0.42857143       0.006
   0.20000000  0.00000000  0.42857143       0.013
   0.40000000  0.00000000  0.42857143       0.013
   0.00000000  0.11111111  0.42857143       0.013
   0.20000000  0.11111111  0.42857143       0.025
   0.40000000  0.11111111  0.42857143       0.025
   0.00000000  0.22222222  0.42857143       0.013
   0.20000000  0.22222222  0.42857143       0.025
   0.40000000  0.22222222  0.42857143       0.025
   0.00000000  0.33333333  0.42857143       0.013
   0.20000000  0.33333333  0.42857143       0.025
   0.40000000  0.33333333  0.42857143       0.025
   0.00000000  0.44444444  0.42857143       0.013
   0.20000000  0.44444444  0.42857143       0.025
   0.40000000  0.44444444  0.42857143       0.025
 
 position of ions in fractional coordinates (direct lattice) 
   0.18433411  0.25000130  0.65762648
   0.31566693  0.75000030  0.15762551
   0.68433293  0.25000130  0.84237505
   0.81566574  0.75000030  0.34237409
   0.41910971  0.53178623  0.80991348
   0.08088911  0.46821358  0.30991251
   0.18778313  0.25000130  0.05172201
   0.31221791  0.75000030  0.55172160
   0.68778084  0.25000130  0.44827896
   0.81221673  0.75000030  0.94827855
   0.41666994  0.25000130  0.39793663
   0.08332999  0.75000030  0.89793760
   0.91667098  0.25000130  0.10206297
   0.58332992  0.75000030  0.60206118
   0.08088911  0.03178722  0.30991251
   0.41910971  0.96821258  0.80991348
   0.58088904  0.46821358  0.19008708
   0.91911075  0.53178623  0.69008668
   0.91911075  0.96821258  0.69008668
   0.58088904  0.03178722  0.19008708
   0.06485111  0.25000130  0.18920536
   0.43514992  0.75000030  0.68920357
   0.56485104  0.25000130  0.31079699
   0.93514874  0.75000030  0.81079658
 
 position of ions in cartesian coordinates  (Angst):
   1.65840995  1.39183997  4.78083006
   2.83997991  4.17549992  1.14591001
   6.15677980  1.39183997  6.12392007
   7.33834976  4.17549992  2.48900003
   3.77062988  2.96062995  5.88793007
   0.72773998  2.60669995  2.25301003
   1.68943994  1.39183997  0.37601000
   2.80894991  4.17549992  4.01092005
   6.18779980  1.39183997  3.25891004
   7.30731976  4.17549992  6.89382008
   3.74867988  1.39183997  2.89293003
   0.74969998  4.17549992  6.52785008
   8.24706973  1.39183997  0.74198001
   5.24807983  4.17549992  4.37688005
   0.72773998  0.17697000  2.25301003
   3.77062988  5.39035990  5.88793007
   5.22611983  2.60669995  1.38190002
   8.26901973  2.96062995  5.01681006
   8.26901973  5.39035990  5.01681006
   5.22611983  0.17697000  1.38190002
   0.58344998  1.39183997  1.37549002
   3.91493987  4.17549992  5.01039006
   5.08182983  1.39183997  2.25944003
   8.41330973  4.17549992  5.89435007
 


--------------------------------------------------------------------------------------------------------


 k-point  1 :   0.0000 0.0000 0.0000  plane waves:    9267
 k-point  2 :   0.2000 0.0000 0.0000  plane waves:    9229
 k-point  3 :   0.4000 0.0000 0.0000  plane waves:    9243
 k-point  4 :   0.0000 0.1111 0.0000  plane waves:    9225
 k-point  5 :   0.2000 0.1111 0.0000  plane waves:    9238
 k-point  6 :   0.4000 0.1111 0.0000  plane waves:    9246
 k-point  7 :   0.0000 0.2222 0.0000  plane waves:    9222
 k-point  8 :   0.2000 0.2222 0.0000  plane waves:    9246
 k-point  9 :   0.4000 0.2222 0.0000  plane waves:    9240
 k-point 10 :   0.0000 0.3333 0.0000  plane waves:    9236
 k-point 11 :   0.2000 0.3333 0.0000  plane waves:    9239
 k-point 12 :   0.4000 0.3333 0.0000  plane waves:    9240
 k-point 13 :   0.0000 0.4444 0.0000  plane waves:    9252
 k-point 14 :   0.2000 0.4444 0.0000  plane waves:    9238
 k-point 15 :   0.4000 0.4444 0.0000  plane waves:    9279
 k-point 16 :   0.0000 0.0000 0.1429  plane waves:    9253
 k-point 17 :   0.2000 0.0000 0.1429  plane waves:    9253
 k-point 18 :   0.4000 0.0000 0.1429  plane waves:    9250
 k-point 19 :   0.0000 0.1111 0.1429  plane waves:    9248
 k-point 20 :   0.2000 0.1111 0.1429  plane waves:    9244
 k-point 21 :   0.4000 0.1111 0.1429  plane waves:    9232
 k-point 22 :   0.0000 0.2222 0.1429  plane waves:    9247
 k-point 23 :   0.2000 0.2222 0.1429  plane waves:    9243
 k-point 24 :   0.4000 0.2222 0.1429  plane waves:    9239
 k-point 25 :   0.0000 0.3333 0.1429  plane waves:    9250
 k-point 26 :   0.2000 0.3333 0.1429  plane waves:    9245
 k-point 27 :   0.4000 0.3333 0.1429  plane waves:    9250
 k-point 28 :   0.0000 0.4444 0.1429  plane waves:    9232
 k-point 29 :   0.2000 0.4444 0.1429  plane waves:    9246
 k-point 30 :   0.4000 0.4444 0.1429  plane waves:    9242
 k-point 31 :   0.0000 0.0000 0.2857  plane waves:    9224
 k-point 32 :   0.2000 0.0000 0.2857  plane waves:    9229
 k-point 33 :   0.4000 0.0000 0.2857  plane waves:    9228
 k-point 34 :   0.0000 0.1111 0.2857  plane waves:    9244
 k-point 35 :   0.2000 0.1111 0.2857  plane waves:    9234
 k-point 36 :   0.4000 0.1111 0.2857  plane waves:    9228
 k-point 37 :   0.0000 0.2222 0.2857  plane waves:    9254
 k-point 38 :   0.2000 0.2222 0.2857  plane waves:    9238
 k-point 39 :   0.4000 0.2222 0.2857  plane waves:    9236
 k-point 40 :   0.0000 0.3333 0.2857  plane waves:    9253
 k-point 41 :   0.2000 0.3333 0.2857  plane waves:    9240
 k-point 42 :   0.4000 0.3333 0.2857  plane waves:    9241
 k-point 43 :   0.0000 0.4444 0.2857  plane waves:    9264
 k-point 44 :   0.2000 0.4444 0.2857  plane waves:    9252
 k-point 45 :   0.4000 0.4444 0.2857  plane waves:    9251
 k-point 46 :   0.0000 0.0000 0.4286  plane waves:    9236
 k-point 47 :   0.2000 0.0000 0.4286  plane waves:    9237
 k-point 48 :   0.4000 0.0000 0.4286  plane waves:    9231
 k-point 49 :   0.0000 0.1111 0.4286  plane waves:    9240
 k-point 50 :   0.2000 0.1111 0.4286  plane waves:    9239
 k-point 51 :   0.4000 0.1111 0.4286  plane waves:    9235
 k-point 52 :   0.0000 0.2222 0.4286  plane waves:    9253
 k-point 53 :   0.2000 0.2222 0.4286  plane waves:    9238
 k-point 54 :   0.4000 0.2222 0.4286  plane waves:    9226
 k-point 55 :   0.0000 0.3333 0.4286  plane waves:    9248
 k-point 56 :   0.2000 0.3333 0.4286  plane waves:    9269
 k-point 57 :   0.4000 0.3333 0.4286  plane waves:    9232
 k-point 58 :   0.0000 0.4444 0.4286  plane waves:    9262
 k-point 59 :   0.2000 0.4444 0.4286  plane waves:    9259
 k-point 60 :   0.4000 0.4444 0.4286  plane waves:    9243

 maximum and minimum number of plane-waves per node :      2340     2240

 maximum number of plane-waves:      9279
 maximum index in each direction: 
   IXMAX=   16   IYMAX=   10   IZMAX=   13
   IXMIN=  -16   IYMIN=  -10   IZMIN=  -13

 NGX is ok and might be reduce to  66
 NGY is ok and might be reduce to  42
 NGZ is ok and might be reduce to  54

 real space projection operators:
  total allocation   :       5603.25 KBytes
  max/ min on nodes  :       1419.81       1381.81


 parallel 3D FFT for wavefunctions:
    minimum data exchange during FFTs selected (reduces bandwidth)
 parallel 3D FFT for charge:
    minimum data exchange during FFTs selected (reduces bandwidth)


 total amount of memory used by VASP on root node   153435. kBytes
========================================================================

   base      :      30000. kBytes
   nonlr-proj:       4455. kBytes
   fftplans  :       3351. kBytes
   grid      :       5405. kBytes
   one-center:         93. kBytes
   wavefun   :     110131. kBytes
 
 Broyden mixing: mesh for mixing (old mesh)
   NGX = 33   NGY = 21   NGZ = 27
  (NGX  = 96   NGY  = 60   NGZ  = 80)
  gives a total of  18711 points

 initial charge density was supplied:
 charge density of overlapping atoms calculated
 number of electron     160.0000000 magnetization 
 keeping initial charge density in first step


--------------------------------------------------------------------------------------------------------


 Maximum index for non-local projection operator         1626
 Maximum index for augmentation-charges         1212 (set IRDMAX)


--------------------------------------------------------------------------------------------------------


 First call to EWALD:  gamma=   0.248
 Maximum number of real-space cells 2x 3x 3
 Maximum number of reciprocal cells 3x 2x 3

 FEWALD executed in parallel
    FEWALD:  cpu time    0.00: real time    0.00


----------------------------------------- Iteration    1(   1)  ---------------------------------------


    POTLOK:  cpu time    0.13: real time    0.13
    SETDIJ:  cpu time    0.01: real time    0.02
     EDDAV:  cpu time  100.32: real time  101.39
       DOS:  cpu time    0.03: real time    0.03
    --------------------------------------------
      LOOP:  cpu time  100.49: real time  101.56

 eigenvalue-minimisations  : 11608
 total energy-change (2. order) : 0.1194822E+04  (-0.8289619E+04)
 number of electron     160.0000000 magnetization 
 augmentation part      160.0000000 magnetization 

 Free energy of the ion-electron system (eV)
  ---------------------------------------------------
  alpha Z        PSCENC =       668.44698805
  Ewald energy   TEWEN  =     -7903.02810301
  -1/2 Hartree   DENC   =     -2932.00873818
  -exchange  EXHF       =         0.00000000
  -V(xc)+E(xc)   XCENC  =       602.94676513
  PAW double counting   =      5915.16671845    -5921.91955002
  entropy T*S    EENTRO =        -0.08296730
  eigenvalues    EBANDS =       -60.58570426
  atomic energy  EATOM  =     10825.88692530
  ---------------------------------------------------
  free energy    TOTEN  =      1194.82233416 eV

  energy without entropy =     1194.90530146  energy(sigma->0) =     1194.86381781


--------------------------------------------------------------------------------------------------------




----------------------------------------- Iteration    1(   2)  ---------------------------------------


     EDDAV:  cpu time  120.41: real time  120.61
       DOS:  cpu time    0.02: real time    0.02
    --------------------------------------------
      LOOP:  cpu time  120.43: real time  120.64

 eigenvalue-minimisations  : 14784
 total energy-change (2. order) :-0.1281038E+04  (-0.1246457E+04)
 number of electron     160.0000000 magnetization 
 augmentation part      160.0000000 magnetization 

 Free energy of the ion-electron system (eV)
  ---------------------------------------------------
  alpha Z        PSCENC =       668.44698805
  Ewald energy   TEWEN  =     -7903.02810301
  -1/2 Hartree   DENC   =     -2932.00873818
  -exchange  EXHF       =         0.00000000
  -V(xc)+E(xc)   XCENC  =       602.94676513
  PAW double counting   =      5915.16671845    -5921.91955002
  entropy T*S    EENTRO =         0.00000000
  eigenvalues    EBANDS =     -1341.70627292
  atomic energy  EATOM  =     10825.88692530
  ---------------------------------------------------
  free energy    TOTEN  =       -86.21526720 eV

  energy without entropy =      -86.21526720  energy(sigma->0) =      -86.21526720


--------------------------------------------------------------------------------------------------------




----------------------------------------- Iteration    1(   3)  ---------------------------------------


     EDDAV:  cpu time  117.74: real time  118.35
       DOS:  cpu time    0.02: real time    0.02
    --------------------------------------------
      LOOP:  cpu time  117.76: real time  118.39

 eigenvalue-minimisations  : 13512
 total energy-change (2. order) :-0.8934336E+02  (-0.8890995E+02)
 number of electron     160.0000000 magnetization 
 augmentation part      160.0000000 magnetization 

 Free energy of the ion-electron system (eV)
  ---------------------------------------------------
  alpha Z        PSCENC =       668.44698805
  Ewald energy   TEWEN  =     -7903.02810301
  -1/2 Hartree   DENC   =     -2932.00873818
  -exchange  EXHF       =         0.00000000
  -V(xc)+E(xc)   XCENC  =       602.94676513
  PAW double counting   =      5915.16671845    -5921.91955002
  entropy T*S    EENTRO =         0.00000000
  eigenvalues    EBANDS =     -1431.04963371
  atomic energy  EATOM  =     10825.88692530
  ---------------------------------------------------
  free energy    TOTEN  =      -175.55862798 eV

  energy without entropy =     -175.55862798  energy(sigma->0) =     -175.55862798


--------------------------------------------------------------------------------------------------------




----------------------------------------- Iteration    1(   4)  ---------------------------------------


     EDDAV:  cpu time  148.71: real time  150.11
       DOS:  cpu time    0.02: real time    0.02
    --------------------------------------------
      LOOP:  cpu time  148.72: real time  150.15

 eigenvalue-minimisations  : 17152
 total energy-change (2. order) :-0.3005973E+01  (-0.3002256E+01)
 number of electron     160.0000000 magnetization 
 augmentation part      160.0000000 magnetization 

 Free energy of the ion-electron system (eV)
  ---------------------------------------------------
  alpha Z        PSCENC =       668.44698805
  Ewald energy   TEWEN  =     -7903.02810301
  -1/2 Hartree   DENC   =     -2932.00873818
  -exchange  EXHF       =         0.00000000
  -V(xc)+E(xc)   XCENC  =       602.94676513
  PAW double counting   =      5915.16671845    -5921.91955002
  entropy T*S    EENTRO =         0.00000000
  eigenvalues    EBANDS =     -1434.05560683
  atomic energy  EATOM  =     10825.88692530
  ---------------------------------------------------
  free energy    TOTEN  =      -178.56460110 eV

  energy without entropy =     -178.56460110  energy(sigma->0) =     -178.56460110


--------------------------------------------------------------------------------------------------------




----------------------------------------- Iteration    1(   5)  ---------------------------------------


     EDDAV:  cpu time  131.72: real time  133.31
       DOS:  cpu time    0.02: real time    0.02
    CHARGE:  cpu time    6.39: real time    6.84
    MIXING:  cpu time    0.01: real time    0.01
    --------------------------------------------
      LOOP:  cpu time  138.13: real time  140.20

 eigenvalue-minimisations  : 15248
 total energy-change (2. order) :-0.5391278E-01  (-0.5389863E-01)
 number of electron     159.9999467 magnetization 
 augmentation part        3.3651834 magnetization 

 Broyden mixing:
  rms(total) = 0.28704E+01    rms(broyden)= 0.28690E+01
  rms(prec ) = 0.39753E+01
  weight for this iteration     100.00

 Free energy of the ion-electron system (eV)
  ---------------------------------------------------
  alpha Z        PSCENC =       668.44698805
  Ewald energy   TEWEN  =     -7903.02810301
  -1/2 Hartree   DENC   =     -2932.00873818
  -exchange  EXHF       =         0.00000000
  -V(xc)+E(xc)   XCENC  =       602.94676513
  PAW double counting   =      5915.16671845    -5921.91955002
  entropy T*S    EENTRO =         0.00000000
  eigenvalues    EBANDS =     -1434.10951960
  atomic energy  EATOM  =     10825.88692530
  ---------------------------------------------------
  free energy    TOTEN  =      -178.61851388 eV

  energy without entropy =     -178.61851388  energy(sigma->0) =     -178.61851388


--------------------------------------------------------------------------------------------------------




----------------------------------------- Iteration    1(   6)  ---------------------------------------


    POTLOK:  cpu time    0.28: real time    0.29
    SETDIJ:  cpu time    0.02: real time    0.02
    EDDIAG:  cpu time   19.81: real time   19.95
  RMM-DIIS:  cpu time   83.02: real time   83.26
    ORTHCH:  cpu time    1.86: real time    1.87
       DOS:  cpu time    0.02: real time    0.02
    CHARGE:  cpu time    5.63: real time    5.64
    MIXING:  cpu time    0.01: real time    0.01
    --------------------------------------------
      LOOP:  cpu time  110.64: real time  111.06

 eigenvalue-minimisations  : 11520
 total energy-change (2. order) : 0.2169860E+02  (-0.1225329E+02)
 number of electron     159.9999548 magnetization 
 augmentation part        1.0542593 magnetization 

 Broyden mixing:
  rms(total) = 0.85586E+00    rms(broyden)= 0.85500E+00
  rms(prec ) = 0.10081E+01
  weight for this iteration     100.00

 eigenvalues of (default mixing * dielectric matrix)
  average eigenvalue GAMMA=   0.9929
  0.9929

 Free energy of the ion-electron system (eV)
  ---------------------------------------------------
  alpha Z        PSCENC =       668.44698805
  Ewald energy   TEWEN  =     -7903.02810301
  -1/2 Hartree   DENC   =     -3125.46794468
  -exchange  EXHF       =         0.00000000
  -V(xc)+E(xc)   XCENC  =       618.01268830
  PAW double counting   =      6577.75060528    -6591.80077916
  entropy T*S    EENTRO =         0.00000000
  eigenvalues    EBANDS =     -1226.72029086
  atomic energy  EATOM  =     10825.88692530
  ---------------------------------------------------
  free energy    TOTEN  =      -156.91991079 eV

  energy without entropy =     -156.91991079  energy(sigma->0) =     -156.91991079


--------------------------------------------------------------------------------------------------------




----------------------------------------- Iteration    1(   7)  ---------------------------------------


    POTLOK:  cpu time    0.58: real time    0.74
    SETDIJ:  cpu time    0.20: real time    0.22
    EDDIAG:  cpu time   19.74: real time   19.81
  RMM-DIIS:  cpu time   94.87: real time   95.01
    ORTHCH:  cpu time    1.79: real time    1.79
       DOS:  cpu time    0.02: real time    0.02
    CHARGE:  cpu time    5.54: real time    5.54
    MIXING:  cpu time    0.01: real time    0.01
    --------------------------------------------
      LOOP:  cpu time  122.74: real time  123.15

 eigenvalue-minimisations  : 13172
 total energy-change (2. order) :-0.4439878E+00  (-0.7282612E+00)
 number of electron     159.9999561 magnetization 
 augmentation part        0.5842685 magnetization 

 Broyden mixing:
  rms(total) = 0.57415E+00    rms(broyden)= 0.57401E+00
  rms(prec ) = 0.66504E+00
  weight for this iteration     100.00

 eigenvalues of (default mixing * dielectric matrix)
  average eigenvalue GAMMA=   1.5990
  1.2341  1.9640

 Free energy of the ion-electron system (eV)
  ---------------------------------------------------
  alpha Z        PSCENC =       668.44698805
  Ewald energy   TEWEN  =     -7903.02810301
  -1/2 Hartree   DENC   =     -3141.15870766
  -exchange  EXHF       =         0.00000000
  -V(xc)+E(xc)   XCENC  =       619.51541983
  PAW double counting   =      6765.00395419    -6780.53881678
  entropy T*S    EENTRO =         0.00000000
  eigenvalues    EBANDS =     -1211.49155855
  atomic energy  EATOM  =     10825.88692530
  ---------------------------------------------------
  free energy    TOTEN  =      -157.36389862 eV

  energy without entropy =     -157.36389862  energy(sigma->0) =     -157.36389862


--------------------------------------------------------------------------------------------------------




----------------------------------------- Iteration    1(   8)  ---------------------------------------


    POTLOK:  cpu time    0.77: real time    0.77
    SETDIJ:  cpu time    0.18: real time    0.19
    EDDIAG:  cpu time   20.36: real time   20.60
  RMM-DIIS:  cpu time   87.72: real time   88.15
    ORTHCH:  cpu time    1.73: real time    1.73
       DOS:  cpu time    0.02: real time    0.02
    CHARGE:  cpu time    5.63: real time    5.64
    MIXING:  cpu time    0.01: real time    0.01
    --------------------------------------------
      LOOP:  cpu time  116.42: real time  117.10

 eigenvalue-minimisations  : 11520
 total energy-change (2. order) :-0.4127588E-01  (-0.3039248E+00)
 number of electron     159.9999550 magnetization 
 augmentation part        0.8780765 magnetization 

 Broyden mixing:
  rms(total) = 0.21844E+00    rms(broyden)= 0.21840E+00
  rms(prec ) = 0.30597E+00
  weight for this iteration     100.00

 eigenvalues of (default mixing * dielectric matrix)
  average eigenvalue GAMMA=   1.5014
  2.4858  1.0091  1.0091

 Free energy of the ion-electron system (eV)
  ---------------------------------------------------
  alpha Z        PSCENC =       668.44698805
  Ewald energy   TEWEN  =     -7903.02810301
  -1/2 Hartree   DENC   =     -3131.05636662
  -exchange  EXHF       =         0.00000000
  -V(xc)+E(xc)   XCENC  =       618.75808314
  PAW double counting   =      6878.09269680    -6894.22171184
  entropy T*S    EENTRO =         0.00000000
  eigenvalues    EBANDS =     -1220.28368632
  atomic energy  EATOM  =     10825.88692530
  ---------------------------------------------------
  free energy    TOTEN  =      -157.40517450 eV

  energy without entropy =     -157.40517450  energy(sigma->0) =     -157.40517450


--------------------------------------------------------------------------------------------------------




----------------------------------------- Iteration    1(   9)  ---------------------------------------


    POTLOK:  cpu time    0.45: real time    0.71
    SETDIJ:  cpu time    0.02: real time    0.02
    EDDIAG:  cpu time   18.81: real time   18.84
  RMM-DIIS:  cpu time   83.35: real time   83.50
    ORTHCH:  cpu time    1.74: real time    1.75
       DOS:  cpu time    0.02: real time    0.02
    CHARGE:  cpu time    5.75: real time    5.75
    MIXING:  cpu time    0.01: real time    0.01
    --------------------------------------------
      LOOP:  cpu time  110.14: real time  110.62

 eigenvalue-minimisations  : 11520
 total energy-change (2. order) : 0.1284671E+00  (-0.4186612E-01)
 number of electron     159.9999554 magnetization 
 augmentation part        0.7623571 magnetization 

 Broyden mixing:
  rms(total) = 0.57653E-01    rms(broyden)= 0.57637E-01
  rms(prec ) = 0.81765E-01
  weight for this iteration     100.00

 eigenvalues of (default mixing * dielectric matrix)
  average eigenvalue GAMMA=   1.5940
  2.4566  1.0770  1.0770  1.7655

 Free energy of the ion-electron system (eV)
  ---------------------------------------------------
  alpha Z        PSCENC =       668.44698805
  Ewald energy   TEWEN  =     -7903.02810301
  -1/2 Hartree   DENC   =     -3149.28221712
  -exchange  EXHF       =         0.00000000
  -V(xc)+E(xc)   XCENC  =       620.26458838
  PAW double counting   =      6961.94828701    -6978.82944907
  entropy T*S    EENTRO =         0.00000000
  eigenvalues    EBANDS =     -1202.68372691
  atomic energy  EATOM  =     10825.88692530
  ---------------------------------------------------
  free energy    TOTEN  =      -157.27670737 eV

  energy without entropy =     -157.27670737  energy(sigma->0) =     -157.27670737


--------------------------------------------------------------------------------------------------------




----------------------------------------- Iteration    1(  10)  ---------------------------------------


    POTLOK:  cpu time    0.12: real time    0.12
    SETDIJ:  cpu time    0.01: real time    0.02
    EDDIAG:  cpu time   19.57: real time   19.70
  RMM-DIIS:  cpu time   86.65: real time   86.98
    ORTHCH:  cpu time    1.89: real time    1.89
       DOS:  cpu time    0.02: real time    0.02
    CHARGE:  cpu time    5.83: real time    5.93
    MIXING:  cpu time    0.01: real time    0.01
    --------------------------------------------
      LOOP:  cpu time  114.10: real time  114.66

 eigenvalue-minimisations  : 11524
 total energy-change (2. order) :-0.9118176E-02  (-0.2438841E-01)
 number of electron     159.9999557 magnetization 
 augmentation part        0.6719206 magnetization 

 Broyden mixing:
  rms(total) = 0.40572E-01    rms(broyden)= 0.40534E-01
  rms(prec ) = 0.55264E-01
  weight for this iteration     100.00

 eigenvalues of (default mixing * dielectric matrix)
  average eigenvalue GAMMA=   1.6281
  2.8115  2.2984  0.9916  1.0195  1.0195

 Free energy of the ion-electron system (eV)
  ---------------------------------------------------
  alpha Z        PSCENC =       668.44698805
  Ewald energy   TEWEN  =     -7903.02810301
  -1/2 Hartree   DENC   =     -3153.24994527
  -exchange  EXHF       =         0.00000000
  -V(xc)+E(xc)   XCENC  =       620.64877528
  PAW double counting   =      6965.74949784    -6982.74175806
  entropy T*S    EENTRO =         0.00000000
  eigenvalues    EBANDS =     -1198.99820569
  atomic energy  EATOM  =     10825.88692530
  ---------------------------------------------------
  free energy    TOTEN  =      -157.28582555 eV

  energy without entropy =     -157.28582555  energy(sigma->0) =     -157.28582555


--------------------------------------------------------------------------------------------------------




----------------------------------------- Iteration    1(  11)  ---------------------------------------


    POTLOK:  cpu time    0.78: real time    0.78
    SETDIJ:  cpu time    0.67: real time    0.67
    EDDIAG:  cpu time   19.11: real time   19.20
  RMM-DIIS:  cpu time   86.44: real time   86.57
    ORTHCH:  cpu time    1.78: real time    1.78
       DOS:  cpu time    0.02: real time    0.02
    CHARGE:  cpu time    5.44: real time    5.44
    MIXING:  cpu time    0.01: real time    0.01
    --------------------------------------------
      LOOP:  cpu time  114.24: real time  114.47

 eigenvalue-minimisations  : 11802
 total energy-change (2. order) : 0.3321149E-02  (-0.1043155E-02)
 number of electron     159.9999557 magnetization 
 augmentation part        0.6796581 magnetization 

 Broyden mixing:
  rms(total) = 0.21783E-01    rms(broyden)= 0.21783E-01
  rms(prec ) = 0.31433E-01
  weight for this iteration     100.00

 eigenvalues of (default mixing * dielectric matrix)
  average eigenvalue GAMMA=   1.6459
  2.9995  2.4706  1.1005  1.1005  0.9719  1.2324

 Free energy of the ion-electron system (eV)
  ---------------------------------------------------
  alpha Z        PSCENC =       668.44698805
  Ewald energy   TEWEN  =     -7903.02810301
  -1/2 Hartree   DENC   =     -3152.31432509
  -exchange  EXHF       =         0.00000000
  -V(xc)+E(xc)   XCENC  =       620.57371017
  PAW double counting   =      6960.50728490    -6977.46560743
  entropy T*S    EENTRO =         0.00000000
  eigenvalues    EBANDS =     -1199.88937729
  atomic energy  EATOM  =     10825.88692530
  ---------------------------------------------------
  free energy    TOTEN  =      -157.28250440 eV

  energy without entropy =     -157.28250440  energy(sigma->0) =     -157.28250440


--------------------------------------------------------------------------------------------------------




----------------------------------------- Iteration    1(  12)  ---------------------------------------


    POTLOK:  cpu time    0.60: real time    0.60
    SETDIJ:  cpu time    0.01: real time    0.02
    EDDIAG:  cpu time   19.74: real time   19.77
  RMM-DIIS:  cpu time   83.61: real time   84.45
    ORTHCH:  cpu time    1.77: real time    1.77
       DOS:  cpu time    0.02: real time    0.02
    CHARGE:  cpu time    5.44: real time    5.48
    MIXING:  cpu time    0.01: real time    0.01
    --------------------------------------------
      LOOP:  cpu time  111.21: real time  112.12

 eigenvalue-minimisations  : 11619
 total energy-change (2. order) : 0.1260236E-02  (-0.1137330E-02)
 number of electron     159.9999556 magnetization 
 augmentation part        0.7014711 magnetization 

 Broyden mixing:
  rms(total) = 0.19492E-02    rms(broyden)= 0.19241E-02
  rms(prec ) = 0.23399E-02
  weight for this iteration     100.00

 eigenvalues of (default mixing * dielectric matrix)
  average eigenvalue GAMMA=   1.6129
  2.9743  2.5663  1.0047  1.1466  1.1466  1.2260  1.2260

 Free energy of the ion-electron system (eV)
  ---------------------------------------------------
  alpha Z        PSCENC =       668.44698805
  Ewald energy   TEWEN  =     -7903.02810301
  -1/2 Hartree   DENC   =     -3151.60436104
  -exchange  EXHF       =         0.00000000
  -V(xc)+E(xc)   XCENC  =       620.49506587
  PAW double counting   =      6956.70798058    -6973.63258622
  entropy T*S    EENTRO =         0.00000000
  eigenvalues    EBANDS =     -1200.55315369
  atomic energy  EATOM  =     10825.88692530
  ---------------------------------------------------
  free energy    TOTEN  =      -157.28124417 eV

  energy without entropy =     -157.28124417  energy(sigma->0) =     -157.28124417


--------------------------------------------------------------------------------------------------------




----------------------------------------- Iteration    1(  13)  ---------------------------------------


    POTLOK:  cpu time    0.31: real time    0.31
    SETDIJ:  cpu time    0.01: real time    0.02
    EDDIAG:  cpu time   19.62: real time   19.65
  RMM-DIIS:  cpu time   55.96: real time   56.14
    ORTHCH:  cpu time    1.74: real time    1.75
       DOS:  cpu time    0.02: real time    0.02
    --------------------------------------------
      LOOP:  cpu time   77.67: real time   77.89

 eigenvalue-minimisations  :  6982
 total energy-change (2. order) :-0.1781582E-04  (-0.1866984E-04)
 number of electron     159.9999556 magnetization 
 augmentation part        0.7014711 magnetization 

 Free energy of the ion-electron system (eV)
  ---------------------------------------------------
  alpha Z        PSCENC =       668.44698805
  Ewald energy   TEWEN  =     -7903.02810301
  -1/2 Hartree   DENC   =     -3151.68588994
  -exchange  EXHF       =         0.00000000
  -V(xc)+E(xc)   XCENC  =       620.50324386
  PAW double counting   =      6956.77785799    -6973.70497953
  entropy T*S    EENTRO =         0.00000000
  eigenvalues    EBANDS =     -1200.47730469
  atomic energy  EATOM  =     10825.88692530
  ---------------------------------------------------
  free energy    TOTEN  =      -157.28126198 eV

  energy without entropy =     -157.28126198  energy(sigma->0) =     -157.28126198


--------------------------------------------------------------------------------------------------------




 average (electrostatic) potential at core
  the test charge radii are     1.2192  0.7215  0.9698
  (the norm of the test charge is              1.0000)
       1 -36.0640       2 -36.0645       3 -36.0639       4 -36.0642       5 -72.8703
       6 -72.8704       7 -72.7822       8 -72.7820       9 -72.7824      10 -72.7819
      11 -72.7553      12 -72.7548      13 -72.7545      14 -72.7553      15 -72.8697
      16 -72.8699      17 -72.8704      18 -72.8696      19 -72.8696      20 -72.8701
      21 -93.2083      22 -93.2078      23 -93.2086      24 -93.2072
 
 
 
 E-fermi :   1.9052     XC(G=0):  -9.4630     alpha+bet :-10.2381


 k-point   1 :       0.0000    0.0000    0.0000
  band No.  band energies     occupation 
      1     -23.7940      2.00000
      2     -23.7356      2.00000
      3     -23.7227      2.00000
      4     -23.7149      2.00000
      5     -21.6274      2.00000
      6     -21.5854      2.00000
      7     -21.5741      2.00000
      8     -21.5522      2.00000
      9     -17.5113      2.00000
     10     -17.4824      2.00000
     11     -17.4670      2.00000
     12     -17.4129      2.00000
     13     -17.4043      2.00000
     14     -17.3923      2.00000
     15     -17.3618      2.00000
     16     -17.3460      2.00000
     17     -17.3420      2.00000
     18     -17.3273      2.00000
     19     -17.3247      2.00000
     20     -17.3197      2.00000
     21      -9.4529      2.00000
     22      -9.2472      2.00000
     23      -9.1576      2.00000
     24      -9.1344      2.00000
     25      -9.0976      2.00000
     26      -9.0830      2.00000
     27      -9.0717      2.00000
     28      -9.0060      2.00000
     29      -8.9888      2.00000
     30      -8.9519      2.00000
     31      -8.9512      2.00000
     32      -8.9476      2.00000
     33      -7.4407      2.00000
     34      -7.0191      2.00000
     35      -6.8922      2.00000
     36      -6.5198      2.00000
     37      -4.9418      2.00000
     38      -4.8602      2.00000
     39      -4.7394      2.00000
     40      -4.7153      2.00000
     41      -4.6192      2.00000
     42      -4.5746      2.00000
     43      -4.4712      2.00000
     44      -4.4079      2.00000
     45      -4.4010      2.00000
     46      -4.3464      2.00000
     47      -4.3062      2.00000
     48      -4.2327      2.00000
     49      -1.9689      2.00000
     50      -1.8882      2.00000
     51      -1.8222      2.00000
     52      -1.8212      2.00000
     53      -1.7079      2.00000
     54      -1.6656      2.00000
     55      -1.6078      2.00000
     56      -1.5654      2.00000
     57      -1.5099      2.00000
     58      -1.4828      2.00000
     59      -1.4677      2.00000
     60      -1.2584      2.00000
     61      -1.2250      2.00000
     62      -1.1622      2.00000
     63      -0.9604      2.00000
     64      -0.9035      2.00000
     65      -0.7663      2.00000
     66      -0.6773      2.00000
     67      -0.5763      2.00000
     68      -0.5002      2.00000
     69       0.1738      2.00000
     70       0.4881      2.00000
     71       0.6272      2.00000
     72       0.6353      2.00000
     73       0.6646      2.00000
     74       0.7580      2.00000
     75       0.7700      2.00000
     76       0.8072      2.00000
     77       0.8396      2.00000
     78       0.8612      2.00000
     79       0.8727      2.00000
     80       0.9191      2.00000
     81       6.9457      0.00000
     82       7.5224      0.00000
     83       7.7078      0.00000
     84       7.8162      0.00000
     85       7.9713      0.00000
     86       8.0212      0.00000
     87       8.2659      0.00000
     88       8.2938      0.00000
     89       8.3243      0.00000
     90       8.4783      0.00000
     91       8.4901      0.00000
     92       8.7457      0.00000
     93       8.7743      0.00000
     94       9.0041      0.00000
     95       9.2842      0.00000
     96       9.4121      0.00000

 k-point   2 :       0.2000    0.0000    0.0000
  band No.  band energies     occupation 
      1     -23.7889      2.00000
      2     -23.7424      2.00000
      3     -23.7215      2.00000
      4     -23.7145      2.00000
      5     -21.6234      2.00000
      6     -21.5902      2.00000
      7     -21.5710      2.00000
      8     -21.5540      2.00000
      9     -17.5061      2.00000
     10     -17.4757      2.00000
     11     -17.4701      2.00000
     12     -17.4122      2.00000
     13     -17.4098      2.00000
     14     -17.3897      2.00000
     15     -17.3657      2.00000
     16     -17.3650      2.00000
     17     -17.3277      2.00000
     18     -17.3263      2.00000
     19     -17.3232      2.00000
     20     -17.3201      2.00000
     21      -9.4257      2.00000
     22      -9.2235      2.00000
     23      -9.1689      2.00000
     24      -9.1209      2.00000
     25      -9.1029      2.00000
     26      -9.0907      2.00000
     27      -9.0600      2.00000
     28      -9.0273      2.00000
     29      -9.0031      2.00000
     30      -8.9812      2.00000
     31      -8.9597      2.00000
     32      -8.9548      2.00000
     33      -7.3402      2.00000
     34      -7.0134      2.00000
     35      -6.9089      2.00000
     36      -6.6013      2.00000
     37      -4.8949      2.00000
     38      -4.8503      2.00000
     39      -4.7536      2.00000
     40      -4.7169      2.00000
     41      -4.6448      2.00000
     42      -4.5463      2.00000
     43      -4.4931      2.00000
     44      -4.4107      2.00000
     45      -4.3878      2.00000
     46      -4.3393      2.00000
     47      -4.3123      2.00000
     48      -4.2656      2.00000
     49      -1.9298      2.00000
     50      -1.8841      2.00000
     51      -1.8298      2.00000
     52      -1.7503      2.00000
     53      -1.6862      2.00000
     54      -1.6610      2.00000
     55      -1.6538      2.00000
     56      -1.5549      2.00000
     57      -1.5008      2.00000
     58      -1.4906      2.00000
     59      -1.4114      2.00000
     60      -1.2527      2.00000
     61      -1.2361      2.00000
     62      -1.2095      2.00000
     63      -1.0033      2.00000
     64      -0.8704      2.00000
     65      -0.7763      2.00000
     66      -0.7236      2.00000
     67      -0.6060      2.00000
     68      -0.5173      2.00000
     69       0.2212      2.00000
     70       0.5033      2.00000
     71       0.6144      2.00000
     72       0.6278      2.00000
     73       0.6730      2.00000
     74       0.6977      2.00000
     75       0.7518      2.00000
     76       0.8276      2.00000
     77       0.8331      2.00000
     78       0.8783      2.00000
     79       0.8882      2.00000
     80       0.9155      2.00000
     81       7.0931      0.00000
     82       7.5530      0.00000
     83       7.7484      0.00000
     84       7.7873      0.00000
     85       7.8824      0.00000
     86       8.0887      0.00000
     87       8.1534      0.00000
     88       8.1902      0.00000
     89       8.3551      0.00000
     90       8.3945      0.00000
     91       8.5357      0.00000
     92       8.7206      0.00000
     93       8.8472      0.00000
     94       8.8829      0.00000
     95       9.3023      0.00000
     96       9.4597      0.00000

 k-point   3 :       0.4000    0.0000    0.0000
  band No.  band energies     occupation 
      1     -23.7755      2.00000
      2     -23.7580      2.00000
      3     -23.7186      2.00000
      4     -23.7156      2.00000
      5     -21.6134      2.00000
      6     -21.6010      2.00000
      7     -21.5651      2.00000
      8     -21.5589      2.00000
      9     -17.4933      2.00000
     10     -17.4793      2.00000
     11     -17.4575      2.00000
     12     -17.4332      2.00000
     13     -17.4008      2.00000
     14     -17.3858      2.00000
     15     -17.3824      2.00000
     16     -17.3730      2.00000
     17     -17.3242      2.00000
     18     -17.3217      2.00000
     19     -17.3206      2.00000
     20     -17.3204      2.00000
     21      -9.3462      2.00000
     22      -9.2348      2.00000
     23      -9.1674      2.00000
     24      -9.1302      2.00000
     25      -9.1031      2.00000
     26      -9.0850      2.00000
     27      -9.0779      2.00000
     28      -9.0401      2.00000
     29      -9.0294      2.00000
     30      -8.9910      2.00000
     31      -8.9873      2.00000
     32      -8.9681      2.00000
     33      -7.1039      2.00000
     34      -6.9964      2.00000
     35      -6.9426      2.00000
     36      -6.8123      2.00000
     37      -4.8233      2.00000
     38      -4.7870      2.00000
     39      -4.7833      2.00000
     40      -4.7007      2.00000
     41      -4.6892      2.00000
     42      -4.5809      2.00000
     43      -4.4900      2.00000
     44      -4.4387      2.00000
     45      -4.3588      2.00000
     46      -4.3306      2.00000
     47      -4.3250      2.00000
     48      -4.3075      2.00000
     49      -1.8829      2.00000
     50      -1.8747      2.00000
     51      -1.8196      2.00000
     52      -1.7693      2.00000
     53      -1.6300      2.00000
     54      -1.6098      2.00000
     55      -1.5669      2.00000
     56      -1.5634      2.00000
     57      -1.5077      2.00000
     58      -1.4819      2.00000
     59      -1.3296      2.00000
     60      -1.2725      2.00000
     61      -1.2632      2.00000
     62      -1.1766      2.00000
     63      -1.1369      2.00000
     64      -1.0021      2.00000
     65      -0.7856      2.00000
     66      -0.6851      2.00000
     67      -0.6414      2.00000
     68      -0.5667      2.00000
     69       0.3429      2.00000
     70       0.4922      2.00000
     71       0.5465      2.00000
     72       0.6125      2.00000
     73       0.6594      2.00000
     74       0.7078      2.00000
     75       0.7344      2.00000
     76       0.7911      2.00000
     77       0.8708      2.00000
     78       0.8884      2.00000
     79       0.9042      2.00000
     80       0.9054      2.00000
     81       7.4338      0.00000
     82       7.6054      0.00000
     83       7.6705      0.00000
     84       7.8784      0.00000
     85       7.9892      0.00000
     86       8.0182      0.00000
     87       8.0966      0.00000
     88       8.1072      0.00000
     89       8.1136      0.00000
     90       8.3366      0.00000
     91       8.3765      0.00000
     92       8.5620      0.00000
     93       8.8741      0.00000
     94       8.9401      0.00000
     95       9.3909      0.00000
     96       9.6340      0.00000

 k-point   4 :       0.0000    0.1111    0.0000
  band No.  band energies     occupation 
      1     -23.7902      2.00000
      2     -23.7346      2.00000
      3     -23.7231      2.00000
      4     -23.7152      2.00000
      5     -21.6240      2.00000
      6     -21.5884      2.00000
      7     -21.5780      2.00000
      8     -21.5534      2.00000
      9     -17.5126      2.00000
     10     -17.4793      2.00000
     11     -17.4645      2.00000
     12     -17.4185      2.00000
     13     -17.4041      2.00000
     14     -17.3923      2.00000
     15     -17.3677      2.00000
     16     -17.3428      2.00000
     17     -17.3424      2.00000
     18     -17.3285      2.00000
     19     -17.3249      2.00000
     20     -17.3236      2.00000
     21      -9.4228      2.00000
     22      -9.2215      2.00000
     23      -9.1606      2.00000
     24      -9.1266      2.00000
     25      -9.0992      2.00000
     26      -9.0784      2.00000
     27      -9.0680      2.00000
     28      -9.0100      2.00000
     29      -9.0097      2.00000
     30      -8.9696      2.00000
     31      -8.9596      2.00000
     32      -8.9464      2.00000
     33      -7.3834      2.00000
     34      -7.0230      2.00000
     35      -6.8690      2.00000
     36      -6.5503      2.00000
     37      -4.9536      2.00000
     38      -4.8512      2.00000
     39      -4.7430      2.00000
     40      -4.6982      2.00000
     41      -4.6182      2.00000
     42      -4.5359      2.00000
     43      -4.4678      2.00000
     44      -4.4674      2.00000
     45      -4.4239      2.00000
     46      -4.3276      2.00000
     47      -4.3112      2.00000
     48      -4.2422      2.00000
     49      -1.9687      2.00000
     50      -1.9054      2.00000
     51      -1.8330      2.00000
     52      -1.7946      2.00000
     53      -1.6791      2.00000
     54      -1.6429      2.00000
     55      -1.5832      2.00000
     56      -1.5699      2.00000
     57      -1.5164      2.00000
     58      -1.4750      2.00000
     59      -1.4627      2.00000
     60      -1.2548      2.00000
     61      -1.2343      2.00000
     62      -1.1579      2.00000
     63      -0.9747      2.00000
     64      -0.8964      2.00000
     65      -0.7675      2.00000
     66      -0.6982      2.00000
     67      -0.5865      2.00000
     68      -0.5834      2.00000
     69       0.2106      2.00000
     70       0.4652      2.00000
     71       0.6032      2.00000
     72       0.6293      2.00000
     73       0.6521      2.00000
     74       0.7562      2.00000
[...]

 k-point  60 :       0.4000    0.4444    0.4286
  band No.  band energies     occupation 
      1     -23.7295      2.00000
      2     -23.7273      2.00000
      3     -23.7231      2.00000
      4     -23.7215      2.00000
      5     -21.6069      2.00000
      6     -21.6061      2.00000
      7     -21.5928      2.00000
      8     -21.5914      2.00000
      9     -17.4966      2.00000
     10     -17.4941      2.00000
     11     -17.4752      2.00000
     12     -17.4730      2.00000
     13     -17.3823      2.00000
     14     -17.3808      2.00000
     15     -17.3765      2.00000
     16     -17.3756      2.00000
     17     -17.3203      2.00000
     18     -17.3173      2.00000
     19     -17.3086      2.00000
     20     -17.3065      2.00000
     21      -9.2994      2.00000
     22      -9.2925      2.00000
     23      -9.2259      2.00000
     24      -9.2191      2.00000
     25      -9.0428      2.00000
     26      -9.0366      2.00000
     27      -9.0279      2.00000
     28      -9.0213      2.00000
     29      -9.0078      2.00000
     30      -9.0045      2.00000
     31      -8.9986      2.00000
     32      -8.9953      2.00000
     33      -6.8119      2.00000
     34      -6.8070      2.00000
     35      -6.7199      2.00000
     36      -6.7105      2.00000
     37      -4.8220      2.00000
     38      -4.8044      2.00000
     39      -4.7938      2.00000
     40      -4.7843      2.00000
     41      -4.5700      2.00000
     42      -4.5626      2.00000
     43      -4.4923      2.00000
     44      -4.4850      2.00000
     45      -4.4249      2.00000
     46      -4.4237      2.00000
     47      -4.3673      2.00000
     48      -4.3637      2.00000
     49      -1.9091      2.00000
     50      -1.9064      2.00000
     51      -1.8711      2.00000
     52      -1.8539      2.00000
     53      -1.5636      2.00000
     54      -1.5568      2.00000
     55      -1.5040      2.00000
     56      -1.4956      2.00000
     57      -1.3758      2.00000
     58      -1.3733      2.00000
     59      -1.3374      2.00000
     60      -1.3348      2.00000
     61      -1.2079      2.00000
     62      -1.1981      2.00000
     63      -1.1112      2.00000
     64      -1.1035      2.00000
     65      -0.8902      2.00000
     66      -0.8824      2.00000
     67      -0.8500      2.00000
     68      -0.8461      2.00000
     69       0.3997      2.00000
     70       0.4151      2.00000
     71       0.4262      2.00000
     72       0.4388      2.00000
     73       0.6196      2.00000
     74       0.6266      2.00000
     75       0.6871      2.00000
     76       0.6930      2.00000
     77       0.8341      2.00000
     78       0.8393      2.00000
     79       0.8686      2.00000
     80       0.8716      2.00000
     81       8.0101      0.00000
     82       8.0211      0.00000
     83       8.0444      0.00000
     84       8.0860      0.00000
     85       8.2444      0.00000
     86       8.2790      0.00000
     87       8.3502      0.00000
     88       8.3820      0.00000
     89       8.6096      0.00000
     90       8.6311      0.00000
     91       8.7764      0.00000
     92       8.7793      0.00000
     93       8.9996      0.00000
     94       9.0104      0.00000
     95       9.0772      0.00000
     96       9.0863      0.00000


--------------------------------------------------------------------------------------------------------


 soft charge-density along one line, spin component           1
         0         1         2         3         4         5         6         7         8         9
 total charge-density along one line
 
 pseudopotential strength for first ion, spin component:           1
  2.387  -4.492   0.000   0.000  -0.003   0.000   0.000  -0.001
 -4.492  -2.791   0.000   0.000   0.000   0.000   0.000   0.000
  0.000   0.000  -7.399   0.000   0.000   1.107   0.000   0.000
  0.000   0.000   0.000  -7.401  -0.001   0.000   1.103  -0.001
 -0.003   0.000   0.000  -0.001  -7.402   0.000  -0.001   1.101
  0.000   0.000   1.107   0.000   0.000   7.449   0.000   0.000
  0.000   0.000   0.000   1.103  -0.001   0.000   7.449   0.000
 -0.001   0.000   0.000  -0.001   1.101   0.000   0.000   7.449
  0.000   0.000  -0.001   0.000   0.000   0.000   0.000   0.000
  0.000   0.000   0.000   0.000   0.000   0.000   0.000   0.000
  0.000   0.000   0.000   0.000   0.000   0.000   0.000   0.000
 -0.001   0.000   0.000  -0.001   0.000   0.000  -0.001   0.000
 -0.002   0.001   0.000   0.000  -0.001   0.000   0.000  -0.001
  0.000   0.000   0.000   0.000   0.000   0.000   0.000   0.000
  0.000   0.000   0.000   0.000   0.000   0.000   0.000   0.000
  0.000   0.000   0.000   0.000   0.000   0.000   0.000   0.000
  0.000   0.000   0.000   0.000   0.000   0.000   0.000   0.000
  0.000   0.000   0.000   0.000   0.000   0.000   0.000   0.000
 total augmentation occupancy for first ion, spin component:           1
  2.057  -0.125   0.000   0.000   0.005   0.000   0.000  -0.001   0.000   0.000   0.000  -0.006  -0.013   0.000   0.000   0.002
 -0.125   0.285   0.000   0.000  -0.012   0.000   0.000   0.002   0.000   0.000  -0.002   0.010   0.020   0.000   0.000   0.000
  0.000   0.000   2.029   0.000   0.000  -0.013   0.000   0.000  -0.004   0.003   0.000   0.000   0.000   0.004  -0.006   0.000
  0.000   0.000   0.000   2.036   0.002   0.000  -0.017  -0.001   0.000   0.000   0.001  -0.010  -0.003   0.000   0.000   0.001
  0.005  -0.012   0.000   0.002   2.041   0.000  -0.001  -0.020   0.000   0.000  -0.001  -0.003  -0.005   0.000   0.000   0.007
  0.000   0.000  -0.013   0.000   0.000   0.006   0.000   0.000   0.001   0.000   0.000   0.000   0.000  -0.003   0.000   0.000
  0.000   0.000   0.000  -0.017  -0.001   0.000   0.007   0.001   0.000   0.000  -0.001   0.001   0.001   0.000   0.000   0.003
 -0.001   0.002   0.000  -0.001  -0.020   0.000   0.001   0.009   0.000   0.000   0.000   0.002   0.001   0.000   0.000  -0.001
  0.000   0.000  -0.004   0.000   0.000   0.001   0.000   0.000   0.064   0.009   0.000   0.000   0.000  -0.194  -0.024   0.000
  0.000   0.000   0.003   0.000   0.000   0.000   0.000   0.000   0.009   0.041   0.000   0.000   0.000  -0.024  -0.112   0.000
  0.000  -0.002   0.000   0.001  -0.001   0.000  -0.001   0.000   0.000   0.000   0.054   0.002  -0.007   0.000   0.000  -0.168
 -0.006   0.010   0.000  -0.010  -0.003   0.000   0.001   0.002   0.000   0.000   0.002   0.040  -0.002   0.000   0.000  -0.006
 -0.013   0.020   0.000  -0.003  -0.005   0.000   0.001   0.001   0.000   0.000  -0.007  -0.002   0.031   0.000   0.000   0.018
  0.000   0.000   0.004   0.000   0.000  -0.003   0.000   0.000  -0.194  -0.024   0.000   0.000   0.000   0.631   0.073   0.000
  0.000   0.000  -0.006   0.000   0.000   0.000   0.000   0.000  -0.024  -0.112   0.000   0.000   0.000   0.073   0.333   0.000
  0.002   0.000   0.000   0.001   0.007   0.000   0.003  -0.001   0.000   0.000  -0.168  -0.006   0.018   0.000   0.000   0.556
  0.008  -0.026   0.000   0.023   0.001   0.000  -0.007  -0.002   0.000   0.000  -0.006  -0.128   0.011   0.000   0.000   0.020
  0.027  -0.065   0.000   0.005   0.006   0.000  -0.001  -0.002   0.000   0.000   0.018   0.011  -0.092   0.000   0.000  -0.054


------------------------ aborting loop because EDIFF is reached ----------------------------------------


 


 total charge     
 
# of ion     s       p       d       tot
----------------------------------------
  1        1.990   5.641   0.172   7.803
  2        1.990   5.641   0.172   7.803
  3        1.990   5.641   0.172   7.802
  4        1.990   5.641   0.172   7.803
  5        1.582   3.561   0.000   5.143
  6        1.582   3.561   0.000   5.143
  7        1.583   3.559   0.000   5.142
  8        1.583   3.559   0.000   5.142
  9        1.583   3.559   0.000   5.143
 10        1.583   3.559   0.000   5.142
 11        1.583   3.572   0.000   5.156
 12        1.583   3.572   0.000   5.156
 13        1.583   3.572   0.000   5.156
 14        1.583   3.572   0.000   5.156
 15        1.582   3.561   0.000   5.143
 16        1.582   3.561   0.000   5.143
 17        1.582   3.561   0.000   5.143
 18        1.582   3.561   0.000   5.143
 19        1.582   3.561   0.000   5.143
 20        1.582   3.561   0.000   5.143
 21        1.231   2.262   0.000   3.492
 22        1.231   2.262   0.000   3.492
 23        1.231   2.262   0.000   3.492
 24        1.231   2.262   0.000   3.492
------------------------------------------------
tot       38.201  88.625   0.688 127.514
 
    CHARGE:  cpu time    5.71: real time    5.71
    FORLOC:  cpu time    0.03: real time    0.03
    FORNL :  cpu time   30.17: real time   30.22
    STRESS:  cpu time   91.01: real time   91.72
    FORCOR:  cpu time    0.13: real time    0.13
    FORHAR:  cpu time    0.06: real time    0.06
    MIXING:  cpu time    0.00: real time    0.01
    FORVDW:  cpu time    0.00: real time    0.00

  FORCE on cell =-STRESS in cart. coord.  units (eV):
  Direction    XX          YY          ZZ          XY          YZ          ZX
  --------------------------------------------------------------------------------------
  Alpha Z   668.58039   668.58039   668.58039
  Ewald   -2563.03046 -2646.58525 -2695.08504     0.00105     0.00000    -0.00053
  Hartree  1046.09656  1089.74418  1014.55336     0.00000     0.00000     0.00000
  E(xc)    -710.01305  -710.68629  -710.40913     0.00000     0.00000     0.00001
  Local   -1203.47473 -1173.44174 -1050.21428    -0.00098     0.00000     0.00257
  n-local  -268.51919  -274.30201  -272.48593    -0.00131     0.00309     0.00436
  augment     9.91560    10.63871    10.47124     0.00000     0.00000     0.00008
  Kinetic  3020.63210  3035.94778  3034.55117     0.00157    -0.10885    -0.02436
  Fock        0.00000     0.00000     0.00000     0.00000     0.00000     0.00000
  -------------------------------------------------------------------------------------
  Total       0.18722    -0.10422    -0.03821     0.00000     0.00000     0.00000
  in kB       0.82394    -0.45867    -0.16818     0.00000     0.00000     0.00000
  external pressure =        0.07 kB  Pullay stress =        0.00 kB


 VOLUME and BASIS-vectors are now :
 -----------------------------------------------------------------------------
  energy-cutoff  :      500.00
  volume of cell :      364.06
      direct lattice vectors                 reciprocal lattice vectors
     8.993339900  0.000000000  0.000000000     0.111193395  0.000000000  0.000000000
     0.000000000  5.568062488  0.000000000     0.000000000  0.179595686  0.000000000
     0.000000000  0.000000000  7.270185128     0.000000000  0.000000000  0.137548079

  length of vectors
     8.993339900  5.568062488  7.270185128     0.111193395  0.179595686  0.137548079


 FORCES acting on ions
    electron-ion (+dipol)            ewald-force                    non-local-force                 convergence-correction
 -----------------------------------------------------------------------------------------------
   0.242E+02 -.975E-03 -.484E+01   -.239E+02 -.196E-02 0.483E+01   -.327E+00 0.000E+00 -.214E-02   0.116E-02 0.406E-05 0.667E-04
   -.242E+02 -.792E-04 -.484E+01   0.239E+02 0.145E-02 0.483E+01   0.327E+00 -.542E-19 -.214E-02   -.949E-03 -.407E-05 0.742E-04
   0.242E+02 -.161E-02 0.484E+01   -.239E+02 -.196E-02 -.483E+01   -.327E+00 0.542E-19 0.214E-02   0.908E-03 0.408E-05 -.603E-04
   -.242E+02 0.552E-03 0.484E+01   0.239E+02 0.145E-02 -.483E+01   0.327E+00 0.000E+00 0.214E-02   -.112E-02 -.409E-05 -.804E-04
   0.928E+01 0.167E+03 -.133E+03   -.131E+02 -.201E+03 0.158E+03   0.388E+01 0.338E+02 -.250E+02   -.281E-03 -.269E-02 0.121E-02
   -.928E+01 -.167E+03 -.133E+03   0.131E+02 0.201E+03 0.158E+03   -.388E+01 -.338E+02 -.250E+02   0.355E-03 0.269E-02 0.119E-02
   -.169E+03 -.721E-02 0.141E+03   0.202E+03 -.114E-02 -.169E+03   -.333E+02 0.000E+00 0.289E+02   0.267E-02 0.344E-05 -.337E-02
   0.168E+03 -.296E-03 0.141E+03   -.202E+03 0.982E-03 -.169E+03   0.333E+02 0.000E+00 0.289E+02   -.253E-02 -.349E-05 -.339E-02
   -.168E+03 -.966E-02 -.141E+03   0.202E+03 -.114E-02 0.169E+03   -.333E+02 0.000E+00 -.289E+02   0.250E-02 0.350E-05 0.336E-02
   0.169E+03 0.216E-02 -.141E+03   -.202E+03 0.982E-03 0.169E+03   0.333E+02 0.000E+00 -.289E+02   -.265E-02 -.354E-05 0.339E-02
   0.180E+03 -.921E-02 -.745E+02   -.221E+03 -.103E-02 0.935E+02   0.406E+02 0.000E+00 -.190E+02   -.416E-02 0.342E-05 0.353E-02
   -.180E+03 0.791E-03 -.745E+02   0.221E+03 0.935E-03 0.935E+02   -.406E+02 0.000E+00 -.190E+02   0.425E-02 -.342E-05 0.355E-02
   0.180E+03 -.869E-02 0.745E+02   -.221E+03 -.103E-02 -.935E+02   0.406E+02 0.000E+00 0.190E+02   -.419E-02 0.347E-05 -.353E-02
   -.180E+03 0.271E-03 0.745E+02   0.221E+03 0.935E-03 -.935E+02   -.406E+02 0.000E+00 0.190E+02   0.411E-02 -.346E-05 -.355E-02
   -.928E+01 0.167E+03 -.133E+03   0.131E+02 -.201E+03 0.158E+03   -.388E+01 0.338E+02 -.250E+02   0.356E-03 -.269E-02 0.119E-02
   0.928E+01 -.167E+03 -.133E+03   -.131E+02 0.201E+03 0.158E+03   0.388E+01 -.338E+02 -.250E+02   -.281E-03 0.269E-02 0.121E-02
   -.928E+01 -.167E+03 0.133E+03   0.131E+02 0.201E+03 -.158E+03   -.388E+01 -.338E+02 0.250E+02   0.219E-03 0.269E-02 -.120E-02
   0.926E+01 0.167E+03 0.133E+03   -.131E+02 -.201E+03 -.158E+03   0.388E+01 0.338E+02 0.250E+02   -.297E-03 -.270E-02 -.121E-02
   0.926E+01 -.167E+03 0.133E+03   -.131E+02 0.201E+03 -.158E+03   0.388E+01 -.338E+02 0.250E+02   -.296E-03 0.269E-02 -.121E-02
   -.928E+01 0.167E+03 0.133E+03   0.131E+02 -.201E+03 -.158E+03   -.388E+01 0.338E+02 0.250E+02   0.219E-03 -.269E-02 -.120E-02
   0.332E+01 -.158E-02 -.567E+01   -.407E+01 -.235E-02 0.441E+01   0.794E+00 0.000E+00 0.134E+01   -.350E-02 0.293E-05 -.353E-02
   -.333E+01 -.673E-03 -.566E+01   0.407E+01 -.903E-03 0.441E+01   -.794E+00 0.000E+00 0.134E+01   0.356E-02 -.290E-05 -.354E-02
   0.332E+01 -.188E-02 0.566E+01   -.407E+01 -.235E-02 -.441E+01   0.794E+00 0.000E+00 -.134E+01   -.362E-02 0.281E-05 0.353E-02
   -.333E+01 -.374E-03 0.566E+01   0.407E+01 -.903E-03 -.441E+01   -.794E+00 0.000E+00 -.134E+01   0.356E-02 -.278E-05 0.354E-02
 -----------------------------------------------------------------------------------------------
   -.826E-01 -.491E-02 0.189E-01   -.435E-13 0.386E-13 -.164E-12   -.755E-14 0.000E+00 0.107E-13   0.269E-05 0.336E-07 -.150E-06
 
 
 POSITION                                       TOTAL-FORCE (eV/Angst)
 -----------------------------------------------------------------------------------
      1.65978      1.39202      4.78007         0.024993      0.000000     -0.013330
      2.83690      4.17605      1.14497        -0.024993      0.000000     -0.013330
      6.15644      1.39202      6.12522         0.024993      0.000000      0.013330
      7.33356      4.17605      2.49012        -0.024993      0.000000      0.013330
      3.76985      2.96089      5.88848         0.015907      0.025211     -0.027167
      0.72681      2.60718      2.25338        -0.015907     -0.025211     -0.027167
      1.68833      1.39202      0.37485        -0.021375      0.000000     -0.020043
      2.80835      4.17605      4.00994         0.021375      0.000000     -0.020043
      6.18498      1.39202      3.26025        -0.021375      0.000000      0.020043
      7.30501      4.17605      6.89534         0.021375      0.000000      0.020043
      3.74624      1.39202      2.89194        -0.073895      0.000000      0.013220
      0.75043      4.17605      6.52704         0.073895      0.000000      0.013220
      8.24292      1.39202      0.74315        -0.073895      0.000000     -0.013220
      5.24710      4.17605      4.37823         0.073895      0.000000     -0.013220
      0.72681      0.17686      2.25338        -0.015907      0.025211     -0.027167
      3.76985      5.39120      5.88848         0.015907     -0.025211     -0.027167
      5.22348      2.60718      1.38171        -0.015907     -0.025211      0.027167
      8.26653      2.96089      5.01680         0.015907      0.025211      0.027167
      8.26653      5.39120      5.01680         0.015907     -0.025211      0.027167
      5.22348      0.17686      1.38171        -0.015907      0.025211      0.027167
      0.58205      1.39202      1.37426         0.045921      0.000000      0.079657
      3.91463      4.17605      5.00934        -0.045921      0.000000      0.079657
      5.07872      1.39202      2.26085         0.045921      0.000000     -0.079657
      8.41129      4.17605      5.89594        -0.045921      0.000000     -0.079657
 -----------------------------------------------------------------------------------
    total drift:                               -0.082569     -0.004912      0.018909


--------------------------------------------------------------------------------------------------------



  FREE ENERGIE OF THE ION-ELECTRON SYSTEM (eV)
  ---------------------------------------------------
  free  energy   TOTEN  =      -157.28182106 eV

  energy  without entropy=     -157.28182106  energy(sigma->0) =     -157.28182106
 
 d Force = 0.2036545E-07[-0.182E-07, 0.589E-07]  d Energy =-0.1832334E-04 0.183E-04
 d Force = 0.6624416E-02[ 0.662E-02, 0.662E-02]  d Ewald  = 0.9461095E-02-0.284E-02


--------------------------------------------------------------------------------------------------------


    POTLOK:  cpu time    0.14: real time    0.14


--------------------------------------------------------------------------------------------------------




--------------------------------------------------------------------------------------------------------


  
 reached required accuracy - stopping structural energy minimisation
     LOOP+:  cpu time  279.24: real time  281.15
    4ORBIT:  cpu time    0.00: real time    0.00
 


 total charge     
 
# of ion     s       p       d       tot
----------------------------------------
  1        1.990   5.641   0.172   7.803
  2        1.990   5.641   0.172   7.803
  3        1.990   5.641   0.172   7.802
  4        1.990   5.641   0.172   7.803
  5        1.582   3.561   0.000   5.143
  6        1.582   3.561   0.000   5.143
  7        1.583   3.559   0.000   5.142
  8        1.583   3.559   0.000   5.142
  9        1.583   3.559   0.000   5.143
 10        1.583   3.559   0.000   5.142
 11        1.583   3.572   0.000   5.156
 12        1.583   3.572   0.000   5.156
 13        1.583   3.572   0.000   5.156
 14        1.583   3.572   0.000   5.156
 15        1.582   3.561   0.000   5.143
 16        1.582   3.561   0.000   5.143
 17        1.582   3.561   0.000   5.143
 18        1.582   3.561   0.000   5.143
 19        1.582   3.561   0.000   5.143
 20        1.582   3.561   0.000   5.143
 21        1.231   2.262   0.000   3.492
 22        1.231   2.262   0.000   3.492
 23        1.231   2.262   0.000   3.492
 24        1.231   2.262   0.000   3.492
------------------------------------------------
tot       38.201  88.625   0.688 127.514
 

 total amount of memory used by VASP on root node   153435. kBytes
========================================================================

   base      :      30000. kBytes
   nonlr-proj:       4455. kBytes
   fftplans  :       3351. kBytes
   grid      :       5405. kBytes
   one-center:         93. kBytes
   wavefun   :     110131. kBytes
 
  
  
 General timing and accounting informations for this job:
 ========================================================
  
                  Total CPU time used (sec):     2385.404
                            User time (sec):     2233.091
                          System time (sec):      152.314
                         Elapsed time (sec):     2400.695
  
                   Maximum memory used (kb):      376192.
                   Average memory used (kb):           0.
  
                          Minor page faults:      1787350
                          Major page faults:           34
                 Voluntary context switches:         2523
