 vasp.5.3.2 13Sep12 (build Sep 19 2012 13:12:15) complex                         
 executed on              unknown date 2013.04.08  11:42:13
 running on   24 total cores
 distrk:  each k-point on   24 cores,    1 groups
 distr:  one band on NCORES_PER_BAND=  12 cores,    2 groups


--------------------------------------------------------------------------------------------------------


 INCAR:
 POTCAR:  PAW_PBE Ca_pv 06Sep2000                 
 POTCAR:  PAW_PBE O 08Apr2002                     
 POTCAR:  PAW_PBE S 17Jan2003                     

 ----------------------------------------------------------------------------- 
|                                                                             |
|           W    W    AA    RRRRR   N    N  II  N    N   GGGG   !!!           |
|           W    W   A  A   R    R  NN   N  II  NN   N  G    G  !!!           |
|           W    W  A    A  R    R  N N  N  II  N N  N  G       !!!           |
|           W WW W  AAAAAA  RRRRR   N  N N  II  N  N N  G  GGG   !            |
|           WW  WW  A    A  R   R   N   NN  II  N   NN  G    G                |
|           W    W  A    A  R    R  N    N  II  N    N   GGGG   !!!           |
|                                                                             |
|      For optimal performance we recommend that you set                      |
|        NPAR = 4 - approx SQRT( number of cores)                             |
|      (number of cores/NPAR must be integer)                                 |
|      This setting will greatly improve the performance of VASP for DFT.     |
|      The default NPAR=number of cores might be grossly inefficient          |
|      on modern multi-core architectures or massively parallel machines.     |
|      Do your own testing.                                                   |
|      Unfortunately you need to use the default for hybrid, GW and RPA       |
|      calculations.                                                          |
|                                                                             |
 ----------------------------------------------------------------------------- 

 POTCAR:  PAW_PBE Ca_pv 06Sep2000                 
   VRHFIN =Ca: p6s2d0.01                                                        
   LEXCH  = PE                                                                  
   EATOM  =   612.5326 eV,   45.0199 Ry                                         
                                                                                
   TITEL  = PAW_PBE Ca_pv 06Sep2000                                             
   LULTRA =        F    use ultrasoft PP ?                                      
   IUNSCR =        1    unscreen: 0-lin 1-nonlin 2-no                           
   RPACOR =    2.300    partial core radius                                     
   POMASS =   40.078; ZVAL   =    8.000    mass and valenz                      
   RCORE  =    3.000    outmost cutoff radius                                   
   RWIGS  =    3.300; RWIGS  =    1.746    wigner-seitz radius (au A)           
   ENMAX  =  119.554; ENMIN  =   89.665 eV                                      
   RCLOC  =    1.709    cutoff for local pot                                    
   LCOR   =        T    correct aug charges                                     
   LPAW   =        T    paw PP                                                  
   EAUG   =  325.799                                                            
   DEXC   =    -.003                                                            
   RMAX   =    4.217    core radius for proj-oper                               
   RAUG   =    1.300    factor for augmentation sphere                          
   RDEP   =    3.090    radius for radial grids                                 
   QCUT   =   -2.964; QGAM   =    5.929    optimization parameters              
                                                                                
   Description                                                                  
     l     E      TYP  RCUT    TYP  RCUT                                        
     1   .000     23  3.000                                                     
     1   .100     23  3.000                                                     
     0   .000     23  3.000                                                     
     0   .000     23  3.000                                                     
     2   .000     23  3.000                                                     
     2   .000     23  3.000                                                     
  local pseudopotential read in
  partial core-charges read in
  atomic valenz-charges read in
  non local Contribution for L= 1  read in
    real space projection operators read in
  non local Contribution for L= 1  read in
    real space projection operators read in
  non local Contribution for L= 0  read in
    real space projection operators read in
  non local Contribution for L= 0  read in
    real space projection operators read in
  non local Contribution for L= 2  read in
    real space projection operators read in
  non local Contribution for L= 2  read in
    real space projection operators read in
    PAW grid and wavefunctions read in
 
   number of l-projection  operators is LMAX  = 6
   number of lm-projection operators is LMMAX = 18
 
 POTCAR:  PAW_PBE O 08Apr2002                     
   VRHFIN =O: s2p4                                                              
   LEXCH  = PE                                                                  
   EATOM  =   432.3788 eV,   31.7789 Ry                                         
                                                                                
   TITEL  = PAW_PBE O 08Apr2002                                                 
   LULTRA =        F    use ultrasoft PP ?                                      
   IUNSCR =        0    unscreen: 0-lin 1-nonlin 2-no                           
   RPACOR =     .000    partial core radius                                     
   POMASS =   16.000; ZVAL   =    6.000    mass and valenz                      
   RCORE  =    1.520    outmost cutoff radius                                   
   RWIGS  =    1.550; RWIGS  =     .820    wigner-seitz radius (au A)           
   ENMAX  =  400.000; ENMIN  =  300.000 eV                                      
   ICORE  =        2    local potential                                         
   LCOR   =        T    correct aug charges                                     
   LPAW   =        T    paw PP                                                  
   EAUG   =  605.392                                                            
   DEXC   =     .000                                                            
   RMAX   =    2.264    core radius for proj-oper                               
   RAUG   =    1.300    factor for augmentation sphere                          
   RDEP   =    1.550    radius for radial grids                                 
   QCUT   =   -5.520; QGAM   =   11.041    optimization parameters              
                                                                                
   Description                                                                  
     l     E      TYP  RCUT    TYP  RCUT                                        
     0   .000     23  1.200                                                     
     0  -.700     23  1.200                                                     
     1   .000     23  1.520                                                     
     1   .600     23  1.520                                                     
     2   .000      7  1.500                                                     
  local pseudopotential read in
  atomic valenz-charges read in
  non local Contribution for L= 0  read in
    real space projection operators read in
  non local Contribution for L= 0  read in
    real space projection operators read in
  non local Contribution for L= 1  read in
    real space projection operators read in
  non local Contribution for L= 1  read in
    real space projection operators read in
    PAW grid and wavefunctions read in
 
   number of l-projection  operators is LMAX  = 4
   number of lm-projection operators is LMMAX = 8
 
 POTCAR:  PAW_PBE S 17Jan2003                     
   VRHFIN =S : s2p4                                                             
   LEXCH  = PE                                                                  
   EATOM  =   276.8230 eV,   20.3459 Ry                                         
                                                                                
   TITEL  = PAW_PBE S 17Jan2003                                                 
   LULTRA =        F    use ultrasoft PP ?                                      
   IUNSCR =        1    unscreen: 0-lin 1-nonlin 2-no                           
   RPACOR =    1.500    partial core radius                                     
   POMASS =   32.066; ZVAL   =    6.000    mass and valenz                      
   RCORE  =    1.900    outmost cutoff radius                                   
   RWIGS  =    2.200; RWIGS  =    1.164    wigner-seitz radius (au A)           
   ENMAX  =  280.000; ENMIN  =  194.016 eV                                      
   ICORE  =        2    local potential                                         
   LCOR   =        T    correct aug charges                                     
   LPAW   =        T    paw PP                                                  
   EAUG   =  335.092                                                            
   DEXC   =     .000                                                            
   RMAX   =    2.867    core radius for proj-oper                               
   RAUG   =    1.300    factor for augmentation sphere                          
   RDEP   =    1.954    radius for radial grids                                 
   QCUT   =   -4.360; QGAM   =    8.721    optimization parameters              
                                                                                
   Description                                                                  
     l     E      TYP  RCUT    TYP  RCUT                                        
     0   .000     23  1.900                                                     
     0   .000     23  1.900                                                     
     1   .000     23  1.900                                                     
     1   .000     23  1.900                                                     
     2   .000     23  1.900                                                     
  local pseudopotential read in
  partial core-charges read in
  atomic valenz-charges read in
  non local Contribution for L= 0  read in
    real space projection operators read in
  non local Contribution for L= 0  read in
    real space projection operators read in
  non local Contribution for L= 1  read in
    real space projection operators read in
  non local Contribution for L= 1  read in
    real space projection operators read in
    PAW grid and wavefunctions read in
 
   number of l-projection  operators is LMAX  = 4
   number of lm-projection operators is LMMAX = 8
 

 ----------------------------------------------------------------------------- 
|                                                                             |
|  ADVICE TO THIS USER RUNNING 'VASP/VAMP'   (HEAR YOUR MASTER'S VOICE ...):  |
|                                                                             |
|      You have a (more or less) 'large supercell' and for larger cells       |
|      it might be more efficient to use real space projection opertators     |
|      So try LREAL= Auto  in the INCAR   file.                               |
|      Mind: At the moment your POTCAR file does not contain real space       |
|       projectors, and has to be modified,  BUT if you                       |
|      want to do an extremely  accurate calculation you might also keep the  |
|      reciprocal projection scheme          (i.e. LREAL=.FALSE.)             |
|                                                                             |
 ----------------------------------------------------------------------------- 

PAW_PBE Ca_pv 06Sep2000                 :
 energy of atom  1       EATOM= -612.5326
 kinetic energy error for atom=    0.0001 (will be added to EATOM!!)
PAW_PBE O 08Apr2002                     :
 energy of atom  2       EATOM= -432.3788
 kinetic energy error for atom=    0.0208 (will be added to EATOM!!)
PAW_PBE S 17Jan2003                     :
 energy of atom  3       EATOM= -276.8230
 kinetic energy error for atom=    0.0016 (will be added to EATOM!!)
 
 
 POSCAR: Ca S O                                  
  positions in direct lattice
  No initial velocities read in
 exchange correlation table for  LEXCH =        8
   RHO(1)=    0.500       N(1)  =     2000
   RHO(2)=  100.500       N(2)  =     4000
 


--------------------------------------------------------------------------------------------------------


 ion  position               nearest neighbor table
   1  0.500  0.000  0.000-  13 2.29   6 2.29   9 2.29   4 2.29  11 2.50  12 2.50  10 2.50   5 2.50
                            16 3.09  16 3.09   2 3.97   3 3.97   2 3.97   3 3.97
   2  0.000  0.500  0.667-   5 2.29  15 2.29  14 2.29  10 2.29   4 2.50  13 2.50   8 2.50   7 2.50
                            17 3.09  17 3.09   1 3.97   3 3.97   1 3.97   3 3.97
   3  0.500  0.500  0.333-  12 2.29   7 2.29  11 2.29   8 2.29   6 2.50  15 2.50   9 2.50  14 2.50
                            18 3.09  18 3.09   2 3.97   1 3.97   1 3.97   2 3.97
   4  0.137  0.695  0.023-  17 1.48   1 2.29   2 2.50
   5  0.305  0.863  0.644-  16 1.48   2 2.29   1 2.50
   6  0.558  0.695  0.977-  18 1.48   1 2.29   3 2.50
   7  0.137  0.442  0.311-  17 1.48   3 2.29   2 2.50
   8  0.863  0.558  0.311-  17 1.48   3 2.29   2 2.50
   9  0.442  0.305  0.977-  18 1.48   1 2.29   3 2.50
  10  0.695  0.137  0.644-  16 1.48   2 2.29   1 2.50
  11  0.442  0.137  0.356-  16 1.48   3 2.29   1 2.50
  12  0.558  0.863  0.356-  16 1.48   3 2.29   1 2.50
  13  0.863  0.305  0.023-  17 1.48   1 2.29   2 2.50
  14  0.695  0.558  0.689-  18 1.48   2 2.29   3 2.50
  15  0.305  0.442  0.689-  18 1.48   2 2.29   3 2.50
  16  0.500  0.000  0.500-  11 1.48  10 1.48  12 1.48   5 1.48   1 3.09   1 3.09
  17  0.000  0.500  0.167-   8 1.48   7 1.48   4 1.48  13 1.48   2 3.09   2 3.09
  18  0.500  0.500  0.833-   6 1.48  15 1.48   9 1.48  14 1.48   3 3.09   3 3.09
 
  LATTYP: Found a hexagonal cell.
 ALAT       =     6.7795387500
 C/A-ratio  =     0.9118794402
  
  Lattice vectors:
  
 A1 = (   6.7795390000,  -0.0000000000,   0.0000000000)
 A2 = (  -3.3897700000,   5.8712530000,   0.0000000000)
 A3 = (   0.0000000000,   0.0000000000,   6.1821220000)


Analysis of symmetry for initial positions (statically):
=====================================================================
 Subroutine PRICEL returns:
 Original cell was already a primitive cell.
 

 Routine SETGRP: Setting up the symmetry group for a 
 hexagonal supercell.


 Subroutine GETGRP returns: Found 12 space group operations
 (whereof  4 operations were pure point group operations)
 out of a pool of 24 trial point group operations.


The static configuration has the point symmetry D_2 .
 The point group associated with its full space group is D_6 .


Analysis of symmetry for dynamics (positions and initial velocities):
=====================================================================
 Subroutine PRICEL returns:
 Original cell was already a primitive cell.
 

 Routine SETGRP: Setting up the symmetry group for a 
 hexagonal supercell.


 Subroutine GETGRP returns: Found 12 space group operations
 (whereof  4 operations were pure point group operations)
 out of a pool of 24 trial point group operations.


The dynamic configuration has the point symmetry D_2 .
 The point group associated with its full space group is D_6 .
 
 
 KPOINTS: KPOINTS                                 

Automatic generation of k-mesh.
Space group operators:
 irot       det(A)        alpha          n_x          n_y          n_z        tau_x        tau_y        tau_z
    1     1.000000     0.000000     1.000000     0.000000     0.000000     0.000000     0.000000     0.000000
    2     1.000000   179.999999     0.000000     0.000000     1.000000     0.000000     0.000000     0.000000
    3     1.000000   180.000000     1.000000     0.000000     0.000000     0.000000     0.000000     0.000000
    4     1.000000   180.000000     0.000000     1.000000     0.000000     0.000000     0.000000     0.000000
    5     1.000000    60.000000     0.000000     0.000000    -1.000000     0.000000     0.000000     0.333334
    6     1.000000   120.000000     0.000000     0.000000    -1.000000     0.000000     0.000000     0.666666
    7     1.000000   120.000000     0.000000     0.000000     1.000000     0.000000     0.000000     0.333334
    8     1.000000    60.000000     0.000000     0.000000     1.000000     0.000000     0.000000     0.666666
    9     1.000000   180.000000     0.866025    -0.500000     0.000000     0.000000     0.000000     0.666668
   10     1.000000   180.000000     0.500000    -0.866025     0.000000     0.000000     0.000000     0.333334
   11     1.000000   180.000000    -0.500000    -0.866025     0.000000     0.000000     0.000000     0.666668
   12     1.000000   180.000000     0.866025     0.500000     0.000000     0.000000     0.000000     0.333334
 
 Subroutine IBZKPT returns following result:
 ===========================================
 
 Found     40 irreducible k-points:
 
 Following reciprocal coordinates:
            Coordinates               Weight
  0.000000  0.000000  0.000000      1.000000
  0.125000  0.000000  0.000000      6.000000
  0.250000  0.000000  0.000000      6.000000
  0.375000  0.000000  0.000000      6.000000
  0.500000  0.000000  0.000000      3.000000
  0.125000  0.125000  0.000000      6.000000
  0.250000  0.125000  0.000000     12.000000
  0.375000  0.125000  0.000000     12.000000
  0.250000  0.250000  0.000000      6.000000
  0.375000  0.250000  0.000000      6.000000
  0.000000  0.000000  0.142857      2.000000
  0.125000  0.000000  0.142857     12.000000
  0.250000  0.000000  0.142857     12.000000
  0.375000  0.000000  0.142857     12.000000
  0.500000  0.000000  0.142857      6.000000
  0.125000  0.125000  0.142857     12.000000
  0.250000  0.125000  0.142857     24.000000
  0.375000  0.125000  0.142857     24.000000
  0.250000  0.250000  0.142857     12.000000
  0.375000  0.250000  0.142857     12.000000
  0.000000  0.000000  0.285714      2.000000
  0.125000  0.000000  0.285714     12.000000
  0.250000  0.000000  0.285714     12.000000
  0.375000  0.000000  0.285714     12.000000
  0.500000  0.000000  0.285714      6.000000
  0.125000  0.125000  0.285714     12.000000
  0.250000  0.125000  0.285714     24.000000
  0.375000  0.125000  0.285714     24.000000
  0.250000  0.250000  0.285714     12.000000
  0.375000  0.250000  0.285714     12.000000
  0.000000  0.000000  0.428571      2.000000
  0.125000  0.000000  0.428571     12.000000
  0.250000  0.000000  0.428571     12.000000
  0.375000  0.000000  0.428571     12.000000
  0.500000  0.000000  0.428571      6.000000
  0.125000  0.125000  0.428571     12.000000
  0.250000  0.125000  0.428571     24.000000
  0.375000  0.125000  0.428571     24.000000
  0.250000  0.250000  0.428571     12.000000
  0.375000  0.250000  0.428571     12.000000
 
 Following cartesian coordinates:
            Coordinates               Weight
  0.000000  0.000000  0.000000      1.000000
  0.018438  0.010645  0.000000      6.000000
  0.036876  0.021290  0.000000      6.000000
  0.055313  0.031935  0.000000      6.000000
  0.073751  0.042580  0.000000      3.000000
  0.018438  0.031935  0.000000      6.000000
  0.036876  0.042580  0.000000     12.000000
  0.055313  0.053225  0.000000     12.000000
  0.036876  0.063871  0.000000      6.000000
  0.055313  0.074516  0.000000      6.000000
  0.000000  0.000000  0.023108      2.000000
  0.018438  0.010645  0.023108     12.000000
  0.036876  0.021290  0.023108     12.000000
  0.055313  0.031935  0.023108     12.000000
  0.073751  0.042580  0.023108      6.000000
  0.018438  0.031935  0.023108     12.000000
  0.036876  0.042580  0.023108     24.000000
  0.055313  0.053225  0.023108     24.000000
  0.036876  0.063871  0.023108     12.000000
  0.055313  0.074516  0.023108     12.000000
  0.000000  0.000000  0.046216      2.000000
  0.018438  0.010645  0.046216     12.000000
  0.036876  0.021290  0.046216     12.000000
  0.055313  0.031935  0.046216     12.000000
  0.073751  0.042580  0.046216      6.000000
  0.018438  0.031935  0.046216     12.000000
  0.036876  0.042580  0.046216     24.000000
  0.055313  0.053225  0.046216     24.000000
  0.036876  0.063871  0.046216     12.000000
  0.055313  0.074516  0.046216     12.000000
  0.000000  0.000000  0.069324      2.000000
  0.018438  0.010645  0.069324     12.000000
  0.036876  0.021290  0.069324     12.000000
  0.055313  0.031935  0.069324     12.000000
  0.073751  0.042580  0.069324      6.000000
  0.018438  0.031935  0.069324     12.000000
  0.036876  0.042580  0.069324     24.000000
  0.055313  0.053225  0.069324     24.000000
  0.036876  0.063871  0.069324     12.000000
  0.055313  0.074516  0.069324     12.000000
 
 TETIRR: Found    444 inequivalent tetrahedra from     2688


--------------------------------------------------------------------------------------------------------




 Dimension of arrays:
   k-points           NKPTS =     40   k-points in BZ     NKDIM =     40   number of bands    NBANDS=     68
   number of dos      NEDOS =    301   number of ions     NIONS =     18
   non local maximal  LDIM  =      6   non local SUM 2l+1 LMDIM =     18
   total plane-waves  NPLWV =  57600
   max r-space proj   IRMAX =      1   max aug-charges    IRDMAX=   5387
   dimension x,y,z NGX =    40 NGY =   40 NGZ =   36
   dimension x,y,z NGXF=    54 NGYF=   54 NGZF=   50
   support grid    NGXF=    54 NGYF=   54 NGZF=   50
   ions per type =               3  12   3
 NGX,Y,Z   is equivalent  to a cutoff of   9.81,  9.81,  9.68 a.u.
 NGXF,Y,Z  is equivalent  to a cutoff of  13.24, 13.24, 13.45 a.u.


 I would recommend the setting:
   dimension x,y,z NGX =    38 NGY =   38 NGZ =   34
 SYSTEM =  unknown system                          
 POSCAR =  Ca S O                                  

 Startparameter for this run:
   NWRITE =      2    write-flag & timer
   PREC   = med       normal or accurate (medium, high low for compatibility)
   ISTART =      0    job   : 0-new  1-cont  2-samecut
   ICHARG =      1    charge: 1-file 2-atom 10-const
   ISPIN  =      1    spin polarized calculation?
   LNONCOLLINEAR =      F non collinear calculations
   LSORBIT =      F    spin-orbit coupling
   INIWAV =      1    electr: 0-lowe 1-rand  2-diag
   LASPH  =      F    aspherical Exc in radial PAW
   METAGGA=      F    non-selfconsistent MetaGGA calc.

 Electronic Relaxation 1
   ENCUT  =  520.0 eV  38.22 Ry    6.18 a.u.  12.61 12.61 11.49*2*pi/ulx,y,z
   ENINI  =  520.0     initial cutoff
   ENAUG  =  605.4 eV  augmentation charge cutoff
   NELM   =     60;   NELMIN=  2; NELMDL=  0     # of ELM steps 
   EDIFF  = 0.1E-03   stopping-criterion for ELM
   LREAL  =      F    real-space projection
   NLSPLINE    = F    spline interpolate recip. space projectors
   LCOMPAT=      F    compatible to vasp.4.4
   GGA_COMPAT  = T    GGA compatible to vasp.4.4-vasp.4.6
   LMAXPAW     = -100 max onsite density
   LMAXMIX     =    2 max onsite mixed and CHGCAR
   VOSKOWN=      0    Vosko Wilk Nusair interpolation
   ROPT   =    0.00000   0.00000   0.00000
 Ionic relaxation
   EDIFFG = 0.1E-02   stopping-criterion for IOM
   NSW    =      0    number of steps for IOM
   NBLOCK =      1;   KBLOCK =      1    inner block; outer block 
   IBRION =     -1    ionic relax: 0-MD 1-quasi-New 2-CG
   NFREE  =      0    steps in history (QN), initial steepest desc. (CG)
   ISIF   =      2    stress and relaxation
   IWAVPR =     10    prediction:  0-non 1-charg 2-wave 3-comb
   ISYM   =      1    0-nonsym 1-usesym 2-fastsym
   LCORR  =      T    Harris-Foulkes like correction to forces

   POTIM  = 0.5000    time-step for ionic-motion
   TEIN   =    0.0    initial temperature
   TEBEG  =    0.0;   TEEND  =   0.0 temperature during run
   SMASS  =  -3.00    Nose mass-parameter (am)
   estimated Nose-frequenzy (Omega)   =  0.10E-29 period in steps =****** mass=  -0.105E-26a.u.
   SCALEE = 1.0000    scale energy and forces
   NPACO  =    256;   APACO  = 16.0  distance and # of slots for P.C.
   PSTRESS=    0.0 pullay stress

  Mass of Ions in am
   POMASS =  40.08 16.00 32.07
  Ionic Valenz
   ZVAL   =   8.00  6.00  6.00
  Atomic Wigner-Seitz radii
   RWIGS  =  -1.00 -1.00 -1.00
  virtual crystal weights 
   VCA    =   1.00  1.00  1.00
   NELECT =     114.0000    total number of electrons
   NUPDOWN=      -1.0000    fix difference up-down

 DOS related values:
   EMIN   =  10.00;   EMAX   =-10.00  energy-range for DOS
   EFERMI =   0.00
   ISMEAR =    -5;   SIGMA  =   0.20  broadening in eV -4-tet -1-fermi 0-gaus

 Electronic relaxation 2 (details)
   IALGO  =     68    algorithm
   LDIAG  =      T    sub-space diagonalisation (order eigenvalues)
   LSUBROT=      T    optimize rotation matrix (better conditioning)
   TURBO    =      0    0=normal 1=particle mesh
   IRESTART =      0    0=no restart 2=restart with 2 vectors
   NREBOOT  =      0    no. of reboots
   NMIN     =      0    reboot dimension
   EREF     =   0.00    reference energy to select bands
   IMIX   =      4    mixing-type and parameters
     AMIX     =   0.40;   BMIX     =  1.00
     AMIX_MAG =   1.60;   BMIX_MAG =  1.00
     AMIN     =   0.10
     WC   =   100.;   INIMIX=   1;  MIXPRE=   1;  MAXMIX= -45

 Intra band minimization:
   WEIMIN = 0.0000     energy-eigenvalue tresh-hold
   EBREAK =  0.37E-06  absolut break condition
   DEPER  =   0.30     relativ break condition  

   TIME   =   0.40     timestep for ELM

  volume/ion in A,a.u.               =      13.67        92.26
  Fermi-wavevector in a.u.,A,eV,Ry     =   1.266738  2.393788 21.832265  1.604626
  Thomas-Fermi vector in A             =   2.399923
 
 Write flags
   LWAVE  =      F    write WAVECAR
   LCHARG =      T    write CHGCAR
   LVTOT  =      F    write LOCPOT, total local potential
   LVHAR  =      T    write LOCPOT, Hartree potential only
   LELF   =      T    write electronic localiz. function (ELF)
   LORBIT =     11    0 simple, 1 ext, 2 COOP (PROOUT)


 Dipole corrections
   LMONO  =      F    monopole corrections only (constant potential shift)
   LDIPOL =      F    correct potential (dipole corrections)
   IDIPOL =      0    1-x, 2-y, 3-z, 4-all directions 
   EPSILON=  1.0000000 bulk dielectric constant

 Exchange correlation treatment:
   GGA     =    --    GGA type
   LEXCH   =     8    internal setting for exchange type
   VOSKOWN=      0    Vosko Wilk Nusair interpolation
   LHFCALC =     F    Hartree Fock is set to
   LHFONE  =     F    Hartree Fock one center treatment
   AEXX    =    0.0000 exact exchange contribution

 Linear response parameters
   LEPSILON=     F    determine dielectric tensor
   LRPA    =     F    only Hartree local field effects (RPA)
   LNABLA  =     F    use nabla operator in PAW spheres
   LVEL    =     F    velocity operator in full k-point grid
   LINTERFAST=   F  fast interpolation
   KINTER  =     0    interpolate to denser k-point grid
   CSHIFT  =0.1000    complex shift for real part using Kramers Kronig
   OMEGAMAX=  -1.0    maximum frequency
   DEG_THRESHOLD= 0.2000000E-02 threshold for treating states as degnerate
   RTIME   =    0.100 relaxation time in fs

 Orbital magnetization related:
   ORBITALMAG=     F  switch on orbital magnetization
   LCHIMAG   =     F  perturbation theory with respect to B field
   DQ        =  0.001000  dq finite difference perturbation B field



--------------------------------------------------------------------------------------------------------


 Static calculation
 charge density and potential will be updated during run
 non-spin polarized calculation
 RMM-DIIS sequential band-by-band and
  variant of blocked Davidson during initial phase
 perform sub-space diagonalisation
    before iterative eigenvector-optimisation
 modified Broyden-mixing scheme, WC =      100.0
 initial mixing is a Kerker type mixing with AMIX =  0.4000 and BMIX =      1.0000
 Hartree-type preconditioning will be used
 using additional bands  11
 reciprocal scheme for non local part
 use partial core corrections
 calculate Harris-corrections to forces   (improved forces if not selfconsistent)
 use gradient corrections 
 use of overlap-Matrix (Vanderbilt PP)
 Fermi weights with tetrahedron method with Bloechl corrections


--------------------------------------------------------------------------------------------------------


  energy-cutoff  :      520.00
  volume of cell :      246.08
      direct lattice vectors                 reciprocal lattice vectors
     6.779539000 -0.000000000  0.000000000     0.147502655  0.085160710 -0.000000000
    -3.389770000  5.871253000  0.000000000     0.000000000  0.170321395 -0.000000000
     0.000000000  0.000000000  6.182122000    -0.000000000 -0.000000000  0.161756756

  length of vectors
     6.779539000  6.779539250  6.182122000     0.170321401  0.170321395  0.161756756


 
 k-points in units of 2pi/SCALE and weight: KPOINTS                                 
   0.00000000  0.00000000  0.00000000       0.002
   0.01843783  0.01064509  0.00000000       0.013
   0.03687566  0.02129018  0.00000000       0.013
   0.05531350  0.03193527  0.00000000       0.013
   0.07375133  0.04258035  0.00000000       0.007
   0.01843783  0.03193526  0.00000000       0.013
   0.03687566  0.04258035  0.00000000       0.027
   0.05531350  0.05322544  0.00000000       0.027
   0.03687566  0.06387053  0.00000000       0.013
   0.05531350  0.07451561  0.00000000       0.013
   0.00000000  0.00000000  0.02310811       0.004
   0.01843783  0.01064509  0.02310811       0.027
   0.03687566  0.02129018  0.02310811       0.027
   0.05531350  0.03193527  0.02310811       0.027
   0.07375133  0.04258035  0.02310811       0.013
   0.01843783  0.03193526  0.02310811       0.027
   0.03687566  0.04258035  0.02310811       0.054
   0.05531350  0.05322544  0.02310811       0.054
   0.03687566  0.06387053  0.02310811       0.027
   0.05531350  0.07451561  0.02310811       0.027
   0.00000000  0.00000000  0.04621622       0.004
   0.01843783  0.01064509  0.04621622       0.027
   0.03687566  0.02129018  0.04621622       0.027
   0.05531350  0.03193527  0.04621622       0.027
   0.07375133  0.04258035  0.04621622       0.013
   0.01843783  0.03193526  0.04621622       0.027
   0.03687566  0.04258035  0.04621622       0.054
   0.05531350  0.05322544  0.04621622       0.054
   0.03687566  0.06387053  0.04621622       0.027
   0.05531350  0.07451561  0.04621622       0.027
   0.00000000  0.00000000  0.06932432       0.004
   0.01843783  0.01064509  0.06932432       0.027
   0.03687566  0.02129018  0.06932432       0.027
   0.05531350  0.03193527  0.06932432       0.027
   0.07375133  0.04258035  0.06932432       0.013
   0.01843783  0.03193526  0.06932432       0.027
   0.03687566  0.04258035  0.06932432       0.054
   0.05531350  0.05322544  0.06932432       0.054
   0.03687566  0.06387053  0.06932432       0.027
   0.05531350  0.07451561  0.06932432       0.027
 
 k-points in reciprocal lattice and weights: KPOINTS                                 
   0.00000000  0.00000000  0.00000000       0.002
   0.12500000  0.00000000  0.00000000       0.013
   0.25000000  0.00000000  0.00000000       0.013
   0.37500000  0.00000000  0.00000000       0.013
   0.50000000  0.00000000  0.00000000       0.007
   0.12500000  0.12500000  0.00000000       0.013
   0.25000000  0.12500000  0.00000000       0.027
   0.37500000  0.12500000  0.00000000       0.027
   0.25000000  0.25000000  0.00000000       0.013
   0.37500000  0.25000000  0.00000000       0.013
   0.00000000  0.00000000  0.14285714       0.004
   0.12500000  0.00000000  0.14285714       0.027
   0.25000000  0.00000000  0.14285714       0.027
   0.37500000  0.00000000  0.14285714       0.027
   0.50000000  0.00000000  0.14285714       0.013
   0.12500000  0.12500000  0.14285714       0.027
   0.25000000  0.12500000  0.14285714       0.054
   0.37500000  0.12500000  0.14285714       0.054
   0.25000000  0.25000000  0.14285714       0.027
   0.37500000  0.25000000  0.14285714       0.027
   0.00000000  0.00000000  0.28571429       0.004
   0.12500000  0.00000000  0.28571429       0.027
   0.25000000  0.00000000  0.28571429       0.027
   0.37500000  0.00000000  0.28571429       0.027
   0.50000000  0.00000000  0.28571429       0.013
   0.12500000  0.12500000  0.28571429       0.027
   0.25000000  0.12500000  0.28571429       0.054
   0.37500000  0.12500000  0.28571429       0.054
   0.25000000  0.25000000  0.28571429       0.027
   0.37500000  0.25000000  0.28571429       0.027
   0.00000000  0.00000000  0.42857143       0.004
   0.12500000  0.00000000  0.42857143       0.027
   0.25000000  0.00000000  0.42857143       0.027
   0.37500000  0.00000000  0.42857143       0.027
   0.50000000  0.00000000  0.42857143       0.013
   0.12500000  0.12500000  0.42857143       0.027
   0.25000000  0.12500000  0.42857143       0.054
   0.37500000  0.12500000  0.42857143       0.054
   0.25000000  0.25000000  0.42857143       0.027
   0.37500000  0.25000000  0.42857143       0.027
 
 position of ions in fractional coordinates (direct lattice) 
   0.50000010  0.00000000  0.00000000
   0.00000102  0.50000058  0.66666758
   0.49999964  0.50000058  0.33333379
   0.13703002  0.69547503  0.02272844
   0.30452232  0.86296739  0.64393752
   0.55844365  0.69547504  0.97727131
   0.13703132  0.44155480  0.31060373
   0.86297092  0.55844637  0.31060373
   0.44155478  0.30452443  0.97727131
   0.69547674  0.13703037  0.64393752
   0.44155533  0.13703037  0.35606223
   0.55844373  0.86296739  0.35606223
   0.86296842  0.30452443  0.02272844
   0.69547722  0.55844637  0.68939602
   0.30452355  0.44155480  0.68939602
   0.50000010  0.00000000  0.49999988
   0.00000102  0.50000058  0.16666770
   0.49999964  0.50000058  0.83333367
 
 position of ions in cartesian coordinates  (Angst):
   3.38977019  0.00000001  0.00000000
  -1.69488008  2.93562991  4.12142032
   1.69488011  2.93562992  2.06071016
  -1.42850006  4.08330988  0.14051001
  -0.86074002  5.06669986  3.98090030
   1.42849010  4.08330989  6.04161046
  -0.56776002  2.59247993  1.92019015
   3.95754024  3.27877992  1.92019015
   1.96127012  1.78793996  6.04161046
   4.25051024  0.80453999  3.98090030
   2.52904015  0.80453998  2.20122017
   0.86073007  5.06669986  2.20122017
   4.81826028  1.78793996  0.14051001
   2.82201017  3.27877992  4.26193033
   0.56776004  2.59247993  4.26193033
   3.38977019  0.00000001  3.09106024
  -1.69488008  2.93562991  1.03036008
   1.69488011  2.93562992  5.15177039
 


--------------------------------------------------------------------------------------------------------


 k-point  1 :   0.0000 0.0000 0.0000  plane waves:    6635
 k-point  2 :   0.1250 0.0000 0.0000  plane waves:    6628
 k-point  3 :   0.2500 0.0000 0.0000  plane waves:    6614
 k-point  4 :   0.3750 0.0000 0.0000  plane waves:    6636
 k-point  5 :   0.5000 0.0000 0.0000  plane waves:    6626
 k-point  6 :   0.1250 0.1250 0.0000  plane waves:    6631
 k-point  7 :   0.2500 0.1250 0.0000  plane waves:    6627
 k-point  8 :   0.3750 0.1250 0.0000  plane waves:    6633
 k-point  9 :   0.2500 0.2500 0.0000  plane waves:    6651
 k-point 10 :   0.3750 0.2500 0.0000  plane waves:    6640
 k-point 11 :   0.0000 0.0000 0.1429  plane waves:    6653
 k-point 12 :   0.1250 0.0000 0.1429  plane waves:    6638
 k-point 13 :   0.2500 0.0000 0.1429  plane waves:    6625
 k-point 14 :   0.3750 0.0000 0.1429  plane waves:    6629
 k-point 15 :   0.5000 0.0000 0.1429  plane waves:    6644
 k-point 16 :   0.1250 0.1250 0.1429  plane waves:    6620
 k-point 17 :   0.2500 0.1250 0.1429  plane waves:    6637
 k-point 18 :   0.3750 0.1250 0.1429  plane waves:    6627
 k-point 19 :   0.2500 0.2500 0.1429  plane waves:    6628
 k-point 20 :   0.3750 0.2500 0.1429  plane waves:    6622
 k-point 21 :   0.0000 0.0000 0.2857  plane waves:    6635
 k-point 22 :   0.1250 0.0000 0.2857  plane waves:    6648
 k-point 23 :   0.2500 0.0000 0.2857  plane waves:    6641
 k-point 24 :   0.3750 0.0000 0.2857  plane waves:    6624
 k-point 25 :   0.5000 0.0000 0.2857  plane waves:    6622
 k-point 26 :   0.1250 0.1250 0.2857  plane waves:    6634
 k-point 27 :   0.2500 0.1250 0.2857  plane waves:    6627
 k-point 28 :   0.3750 0.1250 0.2857  plane waves:    6625
 k-point 29 :   0.2500 0.2500 0.2857  plane waves:    6598
 k-point 30 :   0.3750 0.2500 0.2857  plane waves:    6602
 k-point 31 :   0.0000 0.0000 0.4286  plane waves:    6653
 k-point 32 :   0.1250 0.0000 0.4286  plane waves:    6634
 k-point 33 :   0.2500 0.0000 0.4286  plane waves:    6633
 k-point 34 :   0.3750 0.0000 0.4286  plane waves:    6606
 k-point 35 :   0.5000 0.0000 0.4286  plane waves:    6606
 k-point 36 :   0.1250 0.1250 0.4286  plane waves:    6649
 k-point 37 :   0.2500 0.1250 0.4286  plane waves:    6620
 k-point 38 :   0.3750 0.1250 0.4286  plane waves:    6604
 k-point 39 :   0.2500 0.2500 0.4286  plane waves:    6612
 k-point 40 :   0.3750 0.2500 0.4286  plane waves:    6599

 maximum and minimum number of plane-waves per node :       571      535

 maximum number of plane-waves:      6653
 maximum index in each direction: 
   IXMAX=   12   IYMAX=   12   IZMAX=   11
   IXMIN=  -13   IYMIN=  -12   IZMIN=  -11

 WARNING: aliasing errors must be expected set NGX to  52 to avoid them
 WARNING: aliasing errors must be expected set NGY to  50 to avoid them
 WARNING: aliasing errors must be expected set NGZ to  46 to avoid them
 aliasing errors are usually negligible using standard VASP settings
 and one can safely disregard these warnings

 parallel 3D FFT for wavefunctions:
    minimum data exchange during FFTs selected (reduces bandwidth)
 parallel 3D FFT for charge:
    minimum data exchange during FFTs selected (reduces bandwidth)


 total amount of memory used by VASP on root node    54086. kBytes
========================================================================

   base      :      30000. kBytes
   nonl-proj :       9943. kBytes
   fftplans  :        465. kBytes
   grid      :        766. kBytes
   one-center:         31. kBytes
   wavefun   :      12881. kBytes
 
 Broyden mixing: mesh for mixing (old mesh)
   NGX = 25   NGY = 25   NGZ = 23
  (NGX  = 54   NGY  = 54   NGZ  = 50)
  gives a total of  14375 points

 initial charge density was supplied:
 charge density of overlapping atoms calculated
 number of electron     114.0000000 magnetization 
 keeping initial charge density in first step


--------------------------------------------------------------------------------------------------------


 Maximum index for augmentation-charges  558 (set IRDMAX)


--------------------------------------------------------------------------------------------------------


 First call to EWALD:  gamma=   0.283
 Maximum number of real-space cells 3x 3x 3
 Maximum number of reciprocal cells 3x 3x 3

 FEWALD executed in parallel
    FEWALD:  cpu time    0.00: real time    0.00


----------------------------------------- Iteration    1(   1)  ---------------------------------------


    POTLOK:  cpu time    0.03: real time    0.03
    SETDIJ:  cpu time    0.00: real time    0.01
     EDDAV:  cpu time    8.82: real time    8.83
 BZINTS: Fermi energy: 26.711768;114.000000 electrons
         Band energy: 967.586800;  BLOECHL correction: -0.168127
       DOS:  cpu time    0.22: real time    0.23
    --------------------------------------------
      LOOP:  cpu time    9.18: real time    9.19

 eigenvalue-minimisations  :  6708
 total energy-change (2. order) : 0.2002801E+04  (-0.4512436E+04)
 number of electron     114.0000000 magnetization 
 augmentation part      114.0000000 magnetization 

 Free energy of the ion-electron system (eV)
  ---------------------------------------------------
  alpha Z        PSCENC =       292.07588676
  Ewald energy   TEWEN  =     -4583.37944223
  -1/2 Hartree   DENC   =     -2949.64188648
  -exchange  EXHF       =         0.00000000
  -V(xc)+E(xc)   XCENC  =       427.14066054
  PAW double counting   =      4371.30406101    -4378.64269385
  entropy T*S    EENTRO =         0.00000000
  eigenvalues    EBANDS =       967.58679982
  atomic energy  EATOM  =      7856.35767766
  ---------------------------------------------------
  free energy    TOTEN  =      2002.80106323 eV

  energy without entropy =     2002.80106323  energy(sigma->0) =     2002.80106323


--------------------------------------------------------------------------------------------------------




----------------------------------------- Iteration    1(   2)  ---------------------------------------


     EDDAV:  cpu time    8.09: real time    8.10
 BZINTS: Fermi energy: 11.583629;114.000000 electrons
         Band energy:-518.886535;  BLOECHL correction: -0.096829
       DOS:  cpu time    0.23: real time    0.23
    --------------------------------------------
      LOOP:  cpu time    8.33: real time    8.33

 eigenvalue-minimisations  :  5976
 total energy-change (2. order) :-0.1486473E+04  (-0.1391185E+04)
 number of electron     114.0000000 magnetization 
 augmentation part      114.0000000 magnetization 

 Free energy of the ion-electron system (eV)
  ---------------------------------------------------
  alpha Z        PSCENC =       292.07588676
  Ewald energy   TEWEN  =     -4583.37944223
  -1/2 Hartree   DENC   =     -2949.64188648
  -exchange  EXHF       =         0.00000000
  -V(xc)+E(xc)   XCENC  =       427.14066054
  PAW double counting   =      4371.30406101    -4378.64269385
  entropy T*S    EENTRO =         0.00000000
  eigenvalues    EBANDS =      -518.88653464
  atomic energy  EATOM  =      7856.35767766
  ---------------------------------------------------
  free energy    TOTEN  =       516.32772878 eV

  energy without entropy =      516.32772878  energy(sigma->0) =      516.32772878


--------------------------------------------------------------------------------------------------------




----------------------------------------- Iteration    1(   3)  ---------------------------------------


     EDDAV:  cpu time    9.11: real time    9.11
 BZINTS: Fermi energy:  7.930596;114.000000 electrons
         Band energy:***********;  BLOECHL correction: -0.002377
       DOS:  cpu time    0.18: real time    0.19
    --------------------------------------------
      LOOP:  cpu time    9.30: real time    9.30

 eigenvalue-minimisations  :  6928
 total energy-change (2. order) :-0.5497697E+03  (-0.5266048E+03)
 number of electron     114.0000000 magnetization 
 augmentation part      114.0000000 magnetization 

 Free energy of the ion-electron system (eV)
  ---------------------------------------------------
  alpha Z        PSCENC =       292.07588676
  Ewald energy   TEWEN  =     -4583.37944223
  -1/2 Hartree   DENC   =     -2949.64188648
  -exchange  EXHF       =         0.00000000
  -V(xc)+E(xc)   XCENC  =       427.14066054
  PAW double counting   =      4371.30406101    -4378.64269385
  entropy T*S    EENTRO =         0.00000000
  eigenvalues    EBANDS =     -1068.65626960
  atomic energy  EATOM  =      7856.35767766
  ---------------------------------------------------
  free energy    TOTEN  =       -33.44200619 eV

  energy without entropy =      -33.44200619  energy(sigma->0) =      -33.44200619


--------------------------------------------------------------------------------------------------------




----------------------------------------- Iteration    1(   4)  ---------------------------------------


     EDDAV:  cpu time   10.06: real time   10.06
 BZINTS: Fermi energy: -1.067607;114.000000 electrons
         Band energy:***********;  BLOECHL correction:  0.000000
       DOS:  cpu time    0.03: real time    0.03
    --------------------------------------------
      LOOP:  cpu time   10.09: real time   10.10

 eigenvalue-minimisations  :  7908
 total energy-change (2. order) :-0.9668555E+02  (-0.9600232E+02)
 number of electron     114.0000000 magnetization 
 augmentation part      114.0000000 magnetization 

 Free energy of the ion-electron system (eV)
  ---------------------------------------------------
  alpha Z        PSCENC =       292.07588676
  Ewald energy   TEWEN  =     -4583.37944223
  -1/2 Hartree   DENC   =     -2949.64188648
  -exchange  EXHF       =         0.00000000
  -V(xc)+E(xc)   XCENC  =       427.14066054
  PAW double counting   =      4371.30406101    -4378.64269385
  entropy T*S    EENTRO =         0.00000000
  eigenvalues    EBANDS =     -1165.34181606
  atomic energy  EATOM  =      7856.35767766
  ---------------------------------------------------
  free energy    TOTEN  =      -130.12755265 eV

  energy without entropy =     -130.12755265  energy(sigma->0) =     -130.12755265


--------------------------------------------------------------------------------------------------------




----------------------------------------- Iteration    1(   5)  ---------------------------------------


     EDDAV:  cpu time   10.54: real time   10.54
 BZINTS: Fermi energy: -1.774691;114.000000 electrons
         Band energy:***********;  BLOECHL correction:  0.000000
       DOS:  cpu time    0.03: real time    0.03
    CHARGE:  cpu time    0.54: real time    0.53
    MIXING:  cpu time    0.00: real time    0.00
    --------------------------------------------
      LOOP:  cpu time   11.11: real time   11.11

 eigenvalue-minimisations  :  8372
 total energy-change (2. order) :-0.3887967E+01  (-0.3879225E+01)
 number of electron     114.0000406 magnetization 
 augmentation part       21.3575079 magnetization 

 Broyden mixing:
  rms(total) = 0.24987E+01    rms(broyden)= 0.24977E+01
  rms(prec ) = 0.43000E+01
  weight for this iteration     100.00

 Free energy of the ion-electron system (eV)
  ---------------------------------------------------
  alpha Z        PSCENC =       292.07588676
  Ewald energy   TEWEN  =     -4583.37944223
  -1/2 Hartree   DENC   =     -2949.64188648
  -exchange  EXHF       =         0.00000000
  -V(xc)+E(xc)   XCENC  =       427.14066054
  PAW double counting   =      4371.30406101    -4378.64269385
  entropy T*S    EENTRO =         0.00000000
  eigenvalues    EBANDS =     -1169.22978309
  atomic energy  EATOM  =      7856.35767766
  ---------------------------------------------------
  free energy    TOTEN  =      -134.01551968 eV

  energy without entropy =     -134.01551968  energy(sigma->0) =     -134.01551968


--------------------------------------------------------------------------------------------------------




----------------------------------------- Iteration    1(   6)  ---------------------------------------


    POTLOK:  cpu time    0.01: real time    0.01
    SETDIJ:  cpu time    0.01: real time    0.00
    EDDIAG:  cpu time    1.52: real time    1.53
  RMM-DIIS:  cpu time    9.76: real time    9.76
    ORTHCH:  cpu time    0.16: real time    0.16
 BZINTS: Fermi energy:  0.512260;114.000000 electrons
         Band energy:***********;  BLOECHL correction:  0.000000
       DOS:  cpu time    0.03: real time    0.02
    CHARGE:  cpu time    0.52: real time    0.52
    MIXING:  cpu time    0.00: real time    0.00
    --------------------------------------------
      LOOP:  cpu time   12.00: real time   12.01

 eigenvalue-minimisations  : 10019
 total energy-change (2. order) : 0.1726720E+02  (-0.9215387E+01)
 number of electron     114.0000338 magnetization 
 augmentation part       19.8695960 magnetization 

 Broyden mixing:
  rms(total) = 0.72486E+00    rms(broyden)= 0.72416E+00
  rms(prec ) = 0.10542E+01
  weight for this iteration     100.00

 eigenvalues of (default mixing * dielectric matrix)
  average eigenvalue GAMMA=   1.0311
  1.0311

 Free energy of the ion-electron system (eV)
  ---------------------------------------------------
  alpha Z        PSCENC =       292.07588676
  Ewald energy   TEWEN  =     -4583.37944223
  -1/2 Hartree   DENC   =     -3102.42554990
  -exchange  EXHF       =         0.00000000
  -V(xc)+E(xc)   XCENC  =       438.57331484
  PAW double counting   =      4928.57534132    -4937.10104259
  entropy T*S    EENTRO =         0.00000000
  eigenvalues    EBANDS =     -1009.42450304
  atomic energy  EATOM  =      7856.35767766
  ---------------------------------------------------
  free energy    TOTEN  =      -116.74831717 eV

  energy without entropy =     -116.74831717  energy(sigma->0) =     -116.74831717


--------------------------------------------------------------------------------------------------------




----------------------------------------- Iteration    1(   7)  ---------------------------------------


    POTLOK:  cpu time    0.01: real time    0.01
    SETDIJ:  cpu time    0.00: real time    0.00
    EDDIAG:  cpu time    1.52: real time    1.53
  RMM-DIIS:  cpu time    9.75: real time    9.75
    ORTHCH:  cpu time    0.16: real time    0.16
 BZINTS: Fermi energy:  0.761895;114.000000 electrons
         Band energy:-986.174929;  BLOECHL correction:  0.000000
       DOS:  cpu time    0.03: real time    0.03
    CHARGE:  cpu time    0.52: real time    0.51
    MIXING:  cpu time    0.00: real time    0.00
    --------------------------------------------
      LOOP:  cpu time   12.00: real time   12.00

 eigenvalue-minimisations  :  9987
 total energy-change (2. order) :-0.2762403E+00  (-0.7175930E+00)
 number of electron     114.0000329 magnetization 
 augmentation part       19.5119836 magnetization 

 Broyden mixing:
  rms(total) = 0.47549E+00    rms(broyden)= 0.47535E+00
  rms(prec ) = 0.64083E+00
  weight for this iteration     100.00

 eigenvalues of (default mixing * dielectric matrix)
  average eigenvalue GAMMA=   1.6359
  1.2336  2.0383

 Free energy of the ion-electron system (eV)
  ---------------------------------------------------
  alpha Z        PSCENC =       292.07588676
  Ewald energy   TEWEN  =     -4583.37944223
  -1/2 Hartree   DENC   =     -3129.24894057
  -exchange  EXHF       =         0.00000000
  -V(xc)+E(xc)   XCENC  =       440.41076454
  PAW double counting   =      5136.87024059    -5143.93581515
  entropy T*S    EENTRO =         0.00000000
  eigenvalues    EBANDS =      -986.17492911
  atomic energy  EATOM  =      7856.35767766
  ---------------------------------------------------
  free energy    TOTEN  =      -117.02455750 eV

  energy without entropy =     -117.02455750  energy(sigma->0) =     -117.02455750


--------------------------------------------------------------------------------------------------------




----------------------------------------- Iteration    1(   8)  ---------------------------------------


    POTLOK:  cpu time    0.01: real time    0.01
    SETDIJ:  cpu time    0.00: real time    0.00
    EDDIAG:  cpu time    1.52: real time    1.53
  RMM-DIIS:  cpu time    9.43: real time    9.43
    ORTHCH:  cpu time    0.16: real time    0.16
 BZINTS: Fermi energy:  0.703518;114.000000 electrons
         Band energy:-980.377475;  BLOECHL correction:  0.000000
       DOS:  cpu time    0.03: real time    0.03
    CHARGE:  cpu time    0.51: real time    0.51
    MIXING:  cpu time    0.00: real time    0.00
    --------------------------------------------
      LOOP:  cpu time   11.68: real time   11.69

 eigenvalue-minimisations  :  9622
 total energy-change (2. order) : 0.8927248E-01  (-0.1061559E+00)
 number of electron     114.0000334 magnetization 
 augmentation part       19.5697128 magnetization 

 Broyden mixing:
  rms(total) = 0.11523E+00    rms(broyden)= 0.11522E+00
  rms(prec ) = 0.20236E+00
  weight for this iteration     100.00

 eigenvalues of (default mixing * dielectric matrix)
  average eigenvalue GAMMA=   1.5539
  2.4601  1.1007  1.1007

 Free energy of the ion-electron system (eV)
  ---------------------------------------------------
  alpha Z        PSCENC =       292.07588676
  Ewald energy   TEWEN  =     -4583.37944223
  -1/2 Hartree   DENC   =     -3136.91753724
  -exchange  EXHF       =         0.00000000
  -V(xc)+E(xc)   XCENC  =       440.46581407
  PAW double counting   =      5269.41724482    -5274.57745394
  entropy T*S    EENTRO =         0.00000000
  eigenvalues    EBANDS =      -980.37747492
  atomic energy  EATOM  =      7856.35767766
  ---------------------------------------------------
  free energy    TOTEN  =      -116.93528502 eV

  energy without entropy =     -116.93528502  energy(sigma->0) =     -116.93528502


--------------------------------------------------------------------------------------------------------




----------------------------------------- Iteration    1(   9)  ---------------------------------------


    POTLOK:  cpu time    0.02: real time    0.01
    SETDIJ:  cpu time    0.00: real time    0.00
    EDDIAG:  cpu time    1.52: real time    1.52
  RMM-DIIS:  cpu time    9.63: real time    9.63
    ORTHCH:  cpu time    0.16: real time    0.16
 BZINTS: Fermi energy:  0.800316;114.000000 electrons
         Band energy:-965.273831;  BLOECHL correction:  0.000000
       DOS:  cpu time    0.03: real time    0.03
    CHARGE:  cpu time    0.51: real time    0.51
    MIXING:  cpu time    0.00: real time    0.00
    --------------------------------------------
      LOOP:  cpu time   11.88: real time   11.88

 eigenvalue-minimisations  :  9849
 total energy-change (2. order) : 0.1158635E-01  (-0.1372829E-01)
 number of electron     114.0000334 magnetization 
 augmentation part       19.5406075 magnetization 

 Broyden mixing:
  rms(total) = 0.40370E-01    rms(broyden)= 0.40360E-01
  rms(prec ) = 0.70204E-01
  weight for this iteration     100.00

 eigenvalues of (default mixing * dielectric matrix)
  average eigenvalue GAMMA=   1.5621
  2.3386  1.1928  1.1928  1.5244

 Free energy of the ion-electron system (eV)
  ---------------------------------------------------
  alpha Z        PSCENC =       292.07588676
  Ewald energy   TEWEN  =     -4583.37944223
  -1/2 Hartree   DENC   =     -3153.51540631
  -exchange  EXHF       =         0.00000000
  -V(xc)+E(xc)   XCENC  =       441.45597959
  PAW double counting   =      5344.53824727    -5349.18281044
  entropy T*S    EENTRO =         0.00000000
  eigenvalues    EBANDS =      -965.27383097
  atomic energy  EATOM  =      7856.35767766
  ---------------------------------------------------
  free energy    TOTEN  =      -116.92369867 eV

  energy without entropy =     -116.92369867  energy(sigma->0) =     -116.92369867


--------------------------------------------------------------------------------------------------------




----------------------------------------- Iteration    1(  10)  ---------------------------------------


    POTLOK:  cpu time    0.01: real time    0.01
    SETDIJ:  cpu time    0.00: real time    0.00
    EDDIAG:  cpu time    1.52: real time    1.53
  RMM-DIIS:  cpu time    9.39: real time    9.39
    ORTHCH:  cpu time    0.16: real time    0.16
 BZINTS: Fermi energy:  0.933751;114.000000 electrons
         Band energy:-959.846668;  BLOECHL correction:  0.000000
       DOS:  cpu time    0.03: real time    0.03
    CHARGE:  cpu time    0.51: real time    0.51
    MIXING:  cpu time    0.00: real time    0.00
    --------------------------------------------
      LOOP:  cpu time   11.64: real time   11.65

 eigenvalue-minimisations  :  9549
 total energy-change (2. order) :-0.1144059E-01  (-0.1375178E-01)
 number of electron     114.0000332 magnetization 
 augmentation part       19.4893390 magnetization 

 Broyden mixing:
  rms(total) = 0.50350E-01    rms(broyden)= 0.50328E-01
  rms(prec ) = 0.82738E-01
  weight for this iteration     100.00

 eigenvalues of (default mixing * dielectric matrix)
  average eigenvalue GAMMA=   1.7388
  2.7244  2.7244  0.9512  1.1470  1.1470

 Free energy of the ion-electron system (eV)
  ---------------------------------------------------
  alpha Z        PSCENC =       292.07588676
  Ewald energy   TEWEN  =     -4583.37944223
  -1/2 Hartree   DENC   =     -3159.26348458
  -exchange  EXHF       =         0.00000000
  -V(xc)+E(xc)   XCENC  =       441.79964076
  PAW double counting   =      5339.36186289    -5344.04061218
  entropy T*S    EENTRO =         0.00000000
  eigenvalues    EBANDS =      -959.84666835
  atomic energy  EATOM  =      7856.35767766
  ---------------------------------------------------
  free energy    TOTEN  =      -116.93513926 eV

  energy without entropy =     -116.93513926  energy(sigma->0) =     -116.93513926


--------------------------------------------------------------------------------------------------------




----------------------------------------- Iteration    1(  11)  ---------------------------------------


    POTLOK:  cpu time    0.01: real time    0.01
    SETDIJ:  cpu time    0.00: real time    0.00
    EDDIAG:  cpu time    1.52: real time    1.52
  RMM-DIIS:  cpu time    9.39: real time    9.39
    ORTHCH:  cpu time    0.16: real time    0.16
 BZINTS: Fermi energy:  0.853025;114.000000 electrons
         Band energy:-960.754866;  BLOECHL correction:  0.000000
       DOS:  cpu time    0.02: real time    0.02
    CHARGE:  cpu time    0.51: real time    0.51
    MIXING:  cpu time    0.00: real time    0.00
    --------------------------------------------
      LOOP:  cpu time   11.63: real time   11.64

 eigenvalue-minimisations  :  9522
 total energy-change (2. order) : 0.7552435E-02  (-0.2807169E-02)
 number of electron     114.0000333 magnetization 
 augmentation part       19.5039165 magnetization 

 Broyden mixing:
  rms(total) = 0.10253E-01    rms(broyden)= 0.10242E-01
  rms(prec ) = 0.17582E-01
  weight for this iteration     100.00

 eigenvalues of (default mixing * dielectric matrix)
  average eigenvalue GAMMA=   1.6974
  3.0396  2.4968  0.9437  1.3189  1.1928  1.1928

 Free energy of the ion-electron system (eV)
  ---------------------------------------------------
  alpha Z        PSCENC =       292.07588676
  Ewald energy   TEWEN  =     -4583.37944223
  -1/2 Hartree   DENC   =     -3158.30789210
  -exchange  EXHF       =         0.00000000
  -V(xc)+E(xc)   XCENC  =       441.64599377
  PAW double counting   =      5331.14912291    -5335.71406761
  entropy T*S    EENTRO =         0.00000000
  eigenvalues    EBANDS =      -960.75486598
  atomic energy  EATOM  =      7856.35767766
  ---------------------------------------------------
  free energy    TOTEN  =      -116.92758682 eV

  energy without entropy =     -116.92758682  energy(sigma->0) =     -116.92758682


--------------------------------------------------------------------------------------------------------




----------------------------------------- Iteration    1(  12)  ---------------------------------------


    POTLOK:  cpu time    0.01: real time    0.01
    SETDIJ:  cpu time    0.00: real time    0.00
    EDDIAG:  cpu time    1.52: real time    1.53
  RMM-DIIS:  cpu time    9.27: real time    9.27
    ORTHCH:  cpu time    0.16: real time    0.16
 BZINTS: Fermi energy:  0.850447;114.000000 electrons
         Band energy:-961.038059;  BLOECHL correction:  0.000000
       DOS:  cpu time    0.02: real time    0.02
    CHARGE:  cpu time    0.51: real time    0.51
    MIXING:  cpu time    0.00: real time    0.00
    --------------------------------------------
      LOOP:  cpu time   11.51: real time   11.52

 eigenvalue-minimisations  :  9479
 total energy-change (2. order) :-0.4774583E-03  (-0.1033189E-02)
 number of electron     114.0000333 magnetization 
 augmentation part       19.5176181 magnetization 

 Broyden mixing:
  rms(total) = 0.83001E-02    rms(broyden)= 0.82816E-02
  rms(prec ) = 0.13817E-01
  weight for this iteration     100.00

 eigenvalues of (default mixing * dielectric matrix)
  average eigenvalue GAMMA=   1.7751
  3.2715  2.4283  2.4283  1.0021  1.0021  1.1468  1.1468

 Free energy of the ion-electron system (eV)
  ---------------------------------------------------
  alpha Z        PSCENC =       292.07588676
  Ewald energy   TEWEN  =     -4583.37944223
  -1/2 Hartree   DENC   =     -3157.99167677
  -exchange  EXHF       =         0.00000000
  -V(xc)+E(xc)   XCENC  =       441.60642215
  PAW double counting   =      5331.15513563    -5335.71400812
  entropy T*S    EENTRO =         0.00000000
  eigenvalues    EBANDS =      -961.03805936
  atomic energy  EATOM  =      7856.35767766
  ---------------------------------------------------
  free energy    TOTEN  =      -116.92806428 eV

  energy without entropy =     -116.92806428  energy(sigma->0) =     -116.92806428


--------------------------------------------------------------------------------------------------------




----------------------------------------- Iteration    1(  13)  ---------------------------------------


    POTLOK:  cpu time    0.01: real time    0.01
    SETDIJ:  cpu time    0.00: real time    0.00
    EDDIAG:  cpu time    1.52: real time    1.53
  RMM-DIIS:  cpu time    7.91: real time    7.91
    ORTHCH:  cpu time    0.16: real time    0.16
 BZINTS: Fermi energy:  0.845950;114.000000 electrons
         Band energy:-960.695741;  BLOECHL correction:  0.000000
       DOS:  cpu time    0.02: real time    0.02
    CHARGE:  cpu time    0.52: real time    0.51
    MIXING:  cpu time    0.00: real time    0.00
    --------------------------------------------
      LOOP:  cpu time   10.16: real time   10.38

 eigenvalue-minimisations  :  7888
 total energy-change (2. order) : 0.2620342E-03  (-0.1030174E-03)
 number of electron     114.0000333 magnetization 
 augmentation part       19.5147762 magnetization 

 Broyden mixing:
  rms(total) = 0.16961E-02    rms(broyden)= 0.16440E-02
  rms(prec ) = 0.29772E-02
  weight for this iteration     100.00

 eigenvalues of (default mixing * dielectric matrix)
  average eigenvalue GAMMA=   1.7114
  3.3992  2.5218  2.5218  1.1001  1.1001  0.9561  1.0459  1.0459

 Free energy of the ion-electron system (eV)
  ---------------------------------------------------
  alpha Z        PSCENC =       292.07588676
  Ewald energy   TEWEN  =     -4583.37944223
  -1/2 Hartree   DENC   =     -3158.34165074
  -exchange  EXHF       =         0.00000000
  -V(xc)+E(xc)   XCENC  =       441.63675609
  PAW double counting   =      5332.51836255    -5337.09965093
  entropy T*S    EENTRO =         0.00000000
  eigenvalues    EBANDS =      -960.69574142
  atomic energy  EATOM  =      7856.35767766
  ---------------------------------------------------
  free energy    TOTEN  =      -116.92780224 eV

  energy without entropy =     -116.92780224  energy(sigma->0) =     -116.92780224


--------------------------------------------------------------------------------------------------------




----------------------------------------- Iteration    1(  14)  ---------------------------------------


    POTLOK:  cpu time    0.01: real time    0.01
    SETDIJ:  cpu time    0.01: real time    0.00
    EDDIAG:  cpu time    1.52: real time    1.52
  RMM-DIIS:  cpu time    5.17: real time    5.17
    ORTHCH:  cpu time    0.16: real time    0.16
 BZINTS: Fermi energy:  0.842306;114.000000 electrons
         Band energy:-960.705719;  BLOECHL correction:  0.000000
       DOS:  cpu time    0.02: real time    0.02
    --------------------------------------------
      LOOP:  cpu time    6.90: real time    6.90

 eigenvalue-minimisations  :  4897
 total energy-change (2. order) :-0.9279164E-05  (-0.2813775E-04)
 number of electron     114.0000333 magnetization 
 augmentation part       19.5147762 magnetization 

 Free energy of the ion-electron system (eV)
  ---------------------------------------------------
  alpha Z        PSCENC =       292.07588676
  Ewald energy   TEWEN  =     -4583.37944223
  -1/2 Hartree   DENC   =     -3158.32852478
  -exchange  EXHF       =         0.00000000
  -V(xc)+E(xc)   XCENC  =       441.63608051
  PAW double counting   =      5332.54582094    -5337.12959169
  entropy T*S    EENTRO =         0.00000000
  eigenvalues    EBANDS =      -960.70571870
  atomic energy  EATOM  =      7856.35767766
  ---------------------------------------------------
  free energy    TOTEN  =      -116.92781152 eV

  energy without entropy =     -116.92781152  energy(sigma->0) =     -116.92781152


--------------------------------------------------------------------------------------------------------




 average (electrostatic) potential at core
  the test charge radii are     1.2658  0.7215  0.9698
  (the norm of the test charge is              1.0000)
       1 -46.4174       2 -46.4179       3 -46.4175       4 -73.1824       5 -73.1820
       6 -73.1822       7 -73.1823       8 -73.1818       9 -73.1816      10 -73.1816
      11 -73.1816      12 -73.1821      13 -73.1818      14 -73.1816      15 -73.1822
      16 -93.5634      17 -93.5645      18 -93.5639
 
 
 
 E-fermi :   0.8423     XC(G=0):  -9.0934     alpha+bet : -9.9821


 k-point   1 :       0.0000    0.0000    0.0000
  band No.  band energies     occupation 
      1     -22.3555      2.00000
      2     -22.2105      2.00000
      3     -22.2101      2.00000
      4     -18.6961      2.00000
      5     -18.6006      2.00000
      6     -18.6003      2.00000
      7     -18.5867      2.00000
      8     -18.5548      2.00000
      9     -18.5547      2.00000
     10     -18.0798      2.00000
     11     -18.0797      2.00000
     12     -18.0471      2.00000
     13     -17.2949      2.00000
     14     -17.1520      2.00000
     15     -17.1517      2.00000
     16     -17.0748      2.00000
     17     -17.0747      2.00000
     18     -17.0070      2.00000
     19     -16.8997      2.00000
     20     -16.8996      2.00000
     21     -16.6844      2.00000
     22      -8.2534      2.00000
     23      -7.3786      2.00000
     24      -7.3785      2.00000
     25      -5.6396      2.00000
     26      -5.6395      2.00000
     27      -5.5314      2.00000
     28      -5.5313      2.00000
     29      -5.3907      2.00000
     30      -4.9786      2.00000
     31      -4.5093      2.00000
     32      -4.5092      2.00000
     33      -4.4426      2.00000
     34      -2.7942      2.00000
     35      -2.7939      2.00000
     36      -2.6811      2.00000
     37      -2.3682      2.00000
     38      -2.2783      2.00000
     39      -1.9865      2.00000
     40      -1.9864      2.00000
     41      -1.9423      2.00000
     42      -1.9421      2.00000
     43      -1.4875      2.00000
     44      -1.4873      2.00000
     45      -1.0475      2.00000
     46      -0.9913      2.00000
     47      -0.9912      2.00000
     48      -0.8442      2.00000
     49       0.1458      2.00000
     50       0.1459      2.00000
     51       0.1689      2.00000
     52       0.1762      2.00000
     53       0.1764      2.00000
     54       0.2534      2.00000
     55       0.4470      2.00000
     56       0.4472      2.00000
     57       0.8197      2.00000
     58       6.9485      0.00000
     59       8.4863      0.00000
     60       8.4941      0.00000
     61       8.5434      0.00000
     62       8.6129      0.00000
     63       8.6410      0.00000
     64       8.7688      0.00000
     65       8.8992      0.00000
     66       9.0082      0.00000
     67       9.0918      0.00000
     68       9.2644      0.00000

 k-point   2 :       0.1250    0.0000    0.0000
  band No.  band energies     occupation 
      1     -22.3539      2.00000
      2     -22.2196      2.00000
      3     -22.2114      2.00000
      4     -18.6830      2.00000
      5     -18.6659      2.00000
      6     -18.6164      2.00000
      7     -18.6124      2.00000
      8     -18.5099      2.00000
      9     -18.4571      2.00000
     10     -18.0688      2.00000
     11     -18.0310      2.00000
     12     -18.0087      2.00000
     13     -17.3549      2.00000
     14     -17.2100      2.00000
     15     -17.1558      2.00000
     16     -17.0792      2.00000
     17     -17.0470      2.00000
     18     -17.0367      2.00000
     19     -16.9096      2.00000
     20     -16.8951      2.00000
     21     -16.7147      2.00000
     22      -8.2014      2.00000
     23      -7.3724      2.00000
     24      -7.3583      2.00000
     25      -5.6421      2.00000
     26      -5.6350      2.00000
     27      -5.5023      2.00000
     28      -5.5006      2.00000
     29      -5.3846      2.00000
     30      -4.9672      2.00000
     31      -4.5602      2.00000
     32      -4.5418      2.00000
     33      -4.4720      2.00000
     34      -2.7780      2.00000
     35      -2.7778      2.00000
     36      -2.6593      2.00000
     37      -2.3724      2.00000
     38      -2.2872      2.00000
     39      -1.9850      2.00000
     40      -1.9763      2.00000
     41      -1.9374      2.00000
     42      -1.9003      2.00000
     43      -1.5029      2.00000
     44      -1.4859      2.00000
     45      -1.0796      2.00000
     46      -1.0744      2.00000
     47      -1.0076      2.00000
     48      -0.8846      2.00000
     49       0.1142      2.00000
     50       0.1191      2.00000
     51       0.1628      2.00000
     52       0.1701      2.00000
     53       0.2155      2.00000
     54       0.2857      2.00000
     55       0.4421      2.00000
     56       0.4559      2.00000
     57       0.8046      2.00000
     58       7.0503      0.00000
     59       8.3824      0.00000
     60       8.4984      0.00000
     61       8.5433      0.00000
     62       8.6040      0.00000
     63       8.6825      0.00000
     64       8.7738      0.00000
     65       8.9278      0.00000
     66       9.0834      0.00000
     67       9.1471      0.00000
     68       9.2918      0.00000

 k-point   3 :       0.2500    0.0000    0.0000
  band No.  band energies     occupation 
      1     -22.3481      2.00000
      2     -22.2434      2.00000
      3     -22.2147      2.00000
      4     -18.7351      2.00000
      5     -18.6949      2.00000
      6     -18.6425      2.00000
      7     -18.6009      2.00000
      8     -18.3881      2.00000
      9     -18.3195      2.00000
     10     -18.0640      2.00000
     11     -17.9027      2.00000
     12     -17.8983      2.00000
     13     -17.4769      2.00000
     14     -17.3625      2.00000
     15     -17.1701      2.00000
     16     -17.1234      2.00000
     17     -17.1173      2.00000
     18     -17.0013      2.00000
     19     -16.9439      2.00000
     20     -16.8842      2.00000
     21     -16.7736      2.00000
     22      -8.0671      2.00000
     23      -7.3664      2.00000
     24      -7.3091      2.00000
     25      -5.6350      2.00000
     26      -5.6021      2.00000
     27      -5.4415      2.00000
     28      -5.4359      2.00000
     29      -5.3584      2.00000
     30      -4.9455      2.00000
     31      -4.6980      2.00000
     32      -4.6795      2.00000
     33      -4.4851      2.00000
     34      -2.7413      2.00000
     35      -2.7254      2.00000
     36      -2.6029      2.00000
     37      -2.3803      2.00000
     38      -2.3140      2.00000
     39      -1.9804      2.00000
     40      -1.9388      2.00000
     41      -1.9231      2.00000
     42      -1.7936      2.00000
     43      -1.5504      2.00000
     44      -1.4858      2.00000
     45      -1.2854      2.00000
     46      -1.2024      2.00000
     47      -1.0124      2.00000
     48      -0.9911      2.00000
     49       0.0791      2.00000
     50       0.1052      2.00000
     51       0.1371      2.00000
     52       0.1527      2.00000
     53       0.2562      2.00000
     54       0.3538      2.00000
     55       0.4328      2.00000
     56       0.4772      2.00000
     57       0.7570      2.00000
     58       7.3162      0.00000
     59       8.1731      0.00000
     60       8.4186      0.00000
     61       8.4284      0.00000
     62       8.4685      0.00000
     63       8.6956      0.00000
     64       8.8913      0.00000
     65       8.9580      0.00000
     66       9.0169      0.00000
     67       9.1459      0.00000
     68       9.4922      0.00000

 k-point   4 :       0.3750    0.0000    0.0000
  band No.  band energies     occupation 
      1     -22.3370      2.00000
      2     -22.2723      2.00000
      3     -22.2179      2.00000
      4     -18.7805      2.00000
      5     -18.7155      2.00000
      6     -18.6645      2.00000
      7     -18.5856      2.00000
      8     -18.1854      2.00000
      9     -18.1711      2.00000
     10     -18.0545      2.00000
     11     -17.8249      2.00000
     12     -17.7724      2.00000
     13     -17.5484      2.00000
     14     -17.5294      2.00000
     15     -17.2843      2.00000
     16     -17.2395      2.00000
     17     -17.1489      2.00000
     18     -16.9790      2.00000
     19     -16.9787      2.00000
     20     -16.8724      2.00000
     21     -16.8072      2.00000
     22      -7.9123      2.00000
     23      -7.3809      2.00000
     24      -7.2595      2.00000
     25      -5.6198      2.00000
     26      -5.5295      2.00000
     27      -5.3974      2.00000
     28      -5.3948      2.00000
     29      -5.2656      2.00000
     30      -4.9364      2.00000
     31      -4.8866      2.00000
     32      -4.8322      2.00000
     33      -4.4879      2.00000
     34      -2.7049      2.00000
     35      -2.6378      2.00000
     36      -2.5392      2.00000
     37      -2.3871      2.00000
     38      -2.3559      2.00000
     39      -1.9712      2.00000
     40      -1.8964      2.00000
     41      -1.8609      2.00000
     42      -1.6831      2.00000
     43      -1.6368      2.00000
     44      -1.5059      2.00000
     45      -1.4955      2.00000
     46      -1.3468      2.00000
     47      -1.1246      2.00000
     48      -1.0093      2.00000
     49       0.0501      2.00000
     50       0.0976      2.00000
     51       0.1382      2.00000
     52       0.1501      2.00000
     53       0.2552      2.00000
     54       0.4316      2.00000
     55       0.4385      2.00000
     56       0.4984      2.00000
     57       0.6800      2.00000
     58       7.6303      0.00000
     59       7.9913      0.00000
     60       8.3375      0.00000
     61       8.3776      0.00000
     62       8.4995      0.00000
     63       8.7617      0.00000
     64       8.8534      0.00000
     65       8.9223      0.00000
     66       9.1098      0.00000
     67       9.1739      0.00000
     68       9.3561      0.00000

 k-point   5 :       0.5000    0.0000    0.0000
  band No.  band energies     occupation 
      1     -22.3275      2.00000
      2     -22.2890      2.00000
      3     -22.2192      2.00000
      4     -18.7964      2.00000
      5     -18.7232      2.00000
      6     -18.6720      2.00000
      7     -18.5813      2.00000
      8     -18.1026      2.00000
      9     -18.0116      2.00000
     10     -17.9930      2.00000
     11     -17.8779      2.00000
     12     -17.8687      2.00000
     13     -17.4568      2.00000
     14     -17.4418      2.00000
     15     -17.4263      2.00000
     16     -17.4139      2.00000
     17     -17.1505      2.00000
     18     -16.9888      2.00000
     19     -16.9722      2.00000
     20     -16.8672      2.00000
     21     -16.8154      2.00000
     22      -7.8367      2.00000
     23      -7.3983      2.00000
     24      -7.2389      2.00000
     25      -5.6126      2.00000
     26      -5.4628      2.00000
     27      -5.4077      2.00000
     28      -5.3862      2.00000
     29      -5.1356      2.00000
     30      -5.0486      2.00000
     31      -4.9395      2.00000
     32      -4.8957      2.00000
     33      -4.4887      2.00000
     34      -2.6896      2.00000
     35      -2.5716      2.00000
     36      -2.5162      2.00000
     37      -2.3898      2.00000
     38      -2.3864      2.00000
     39      -1.9608      2.00000
     40      -1.8712      2.00000
     41      -1.7785      2.00000
     42      -1.7263      2.00000
     43      -1.6859      2.00000
     44      -1.5782      2.00000
     45      -1.4873      2.00000
     46      -1.4012      2.00000
     47      -1.2014      2.00000
     48      -1.0076      2.00000
     49       0.0398      2.00000
     50       0.0886      2.00000
     51       0.1330      2.00000
     52       0.1856      2.00000
     53       0.2290      2.00000
     54       0.4345      2.00000
     55       0.4985      2.00000
     56       0.5097      2.00000
     57       0.6186      2.00000
     58       7.7866      0.00000
     59       7.9201      0.00000
     60       8.3217      0.00000
     61       8.3788      0.00000
     62       8.5698      0.00000
     63       8.7931      0.00000
     64       8.8515      0.00000
     65       8.9186      0.00000
     66       9.1043      0.00000
     67       9.1550      0.00000
     68       9.3042      0.00000

 k-point   6 :       0.1250    0.1250    0.0000
  band No.  band energies     occupation 
      1     -22.3502      2.00000
      2     -22.2357      2.00000
      3     -22.2141      2.00000
      4     -18.7133      2.00000
      5     -18.6822      2.00000
      6     -18.6775      2.00000
      7     -18.5408      2.00000
      8     -18.4857      2.00000
      9     -18.3384      2.00000
     10     -18.0268      2.00000
     11     -18.0109      2.00000
     12     -17.9010      2.00000
     13     -17.4525      2.00000
     14     -17.2561      2.00000
     15     -17.2322      2.00000
     16     -17.1082      2.00000
     17     -17.0573      2.00000
     18     -17.0301      2.00000
     19     -16.9177      2.00000
     20     -16.8957      2.00000
     21     -16.7604      2.00000
     22      -8.1075      2.00000
     23      -7.3712      2.00000
     24      -7.3195      2.00000
     25      -5.6440      2.00000
     26      -5.6099      2.00000
     27      -5.4571      2.00000
     28      -5.4548      2.00000
     29      -5.3691      2.00000
     30      -4.9506      2.00000
     31      -4.6898      2.00000
     32      -4.5641      2.00000
     33      -4.5208      2.00000
     34      -2.7526      2.00000
     35      -2.7430      2.00000
     36      -2.6202      2.00000
     37      -2.3780      2.00000
     38      -2.3047      2.00000
     39      -1.9799      2.00000
     40      -1.9580      2.00000
     41      -1.9236      2.00000
     42      -1.8270      2.00000
     43      -1.5330      2.00000
     44      -1.4884      2.00000
     45      -1.2465      2.00000
     46      -1.0766      2.00000
     47      -1.0719      2.00000
     48      -0.9581      2.00000
     49       0.0893      2.00000
     50       0.1051      2.00000
     51       0.1451      2.00000
     52       0.1539      2.00000
     53       0.2533      2.00000
     54       0.3302      2.00000
     55       0.4315      2.00000
     56       0.4738      2.00000
     57       0.7731      2.00000
     58       7.2347      0.00000
     59       8.2390      0.00000
     60       8.4165      0.00000
     61       8.4492      0.00000
     62       8.5872      0.00000
     63       8.6090      0.00000
     64       8.8745      0.00000
     65       8.9520      0.00000
     66       9.0039      0.00000
     67       9.1226      0.00000
     68       9.3645      0.00000

 k-point   7 :       0.2500    0.1250    0.0000
[...]
     52       0.1058      2.00000
     53       0.2631      2.00000
     54       0.3698      2.00000
     55       0.4459      2.00000
     56       0.5915      2.00000
     57       0.6651      2.00000
     58       8.1236      0.00000
     59       8.2698      0.00000
     60       8.3390      0.00000
     61       8.5426      0.00000
     62       8.6375      0.00000
     63       8.7027      0.00000
     64       8.8115      0.00000
     65       8.9334      0.00000
     66       9.0031      0.00000
     67       9.1043      0.00000
     68       9.4712      0.00000

 k-point  39 :       0.2500    0.2500    0.4286
  band No.  band energies     occupation 
      1     -22.3573      2.00000
      2     -22.3167      2.00000
      3     -22.2747      2.00000
      4     -18.5979      2.00000
      5     -18.5792      2.00000
      6     -18.4352      2.00000
      7     -18.3411      2.00000
      8     -18.1056      2.00000
      9     -18.0128      2.00000
     10     -17.8982      2.00000
     11     -17.8645      2.00000
     12     -17.7936      2.00000
     13     -17.5320      2.00000
     14     -17.4988      2.00000
     15     -17.4831      2.00000
     16     -17.4140      2.00000
     17     -17.3154      2.00000
     18     -17.2506      2.00000
     19     -17.1736      2.00000
     20     -16.9705      2.00000
     21     -16.9180      2.00000
     22      -7.6799      2.00000
     23      -7.4720      2.00000
     24      -7.2466      2.00000
     25      -5.5094      2.00000
     26      -5.4351      2.00000
     27      -5.3493      2.00000
     28      -5.2820      2.00000
     29      -5.1378      2.00000
     30      -5.0028      2.00000
     31      -4.8787      2.00000
     32      -4.8163      2.00000
     33      -4.6528      2.00000
     34      -2.6945      2.00000
     35      -2.5169      2.00000
     36      -2.3558      2.00000
     37      -2.3206      2.00000
     38      -2.1863      2.00000
     39      -2.1238      2.00000
     40      -2.0039      2.00000
     41      -1.9773      2.00000
     42      -1.9139      2.00000
     43      -1.5822      2.00000
     44      -1.4760      2.00000
     45      -1.3930      2.00000
     46      -1.3132      2.00000
     47      -1.2016      2.00000
     48      -1.1356      2.00000
     49      -0.1524      2.00000
     50      -0.1361      2.00000
     51       0.0574      2.00000
     52       0.0860      2.00000
     53       0.2871      2.00000
     54       0.3616      2.00000
     55       0.4561      2.00000
     56       0.5732      2.00000
     57       0.6771      2.00000
     58       8.1479      0.00000
     59       8.2356      0.00000
     60       8.3326      0.00000
     61       8.5861      0.00000
     62       8.6655      0.00000
     63       8.6940      0.00000
     64       8.7843      0.00000
     65       8.9203      0.00000
     66       8.9986      0.00000
     67       9.2830      0.00000
     68       9.3657      0.00000

 k-point  40 :       0.3750    0.2500    0.4286
  band No.  band energies     occupation 
      1     -22.3599      2.00000
      2     -22.3099      2.00000
      3     -22.2846      2.00000
      4     -18.5902      2.00000
      5     -18.5892      2.00000
      6     -18.4430      2.00000
      7     -18.3136      2.00000
      8     -18.0739      2.00000
      9     -18.0027      2.00000
     10     -17.8854      2.00000
     11     -17.8147      2.00000
     12     -17.7764      2.00000
     13     -17.5415      2.00000
     14     -17.5062      2.00000
     15     -17.4698      2.00000
     16     -17.4354      2.00000
     17     -17.3761      2.00000
     18     -17.2613      2.00000
     19     -17.1661      2.00000
     20     -17.0155      2.00000
     21     -16.9358      2.00000
     22      -7.6408      2.00000
     23      -7.4752      2.00000
     24      -7.2198      2.00000
     25      -5.4964      2.00000
     26      -5.4623      2.00000
     27      -5.3509      2.00000
     28      -5.2810      2.00000
     29      -5.0689      2.00000
     30      -4.9727      2.00000
     31      -4.9101      2.00000
     32      -4.8653      2.00000
     33      -4.6308      2.00000
     34      -2.7401      2.00000
     35      -2.4698      2.00000
     36      -2.4168      2.00000
     37      -2.2840      2.00000
     38      -2.1974      2.00000
     39      -2.1610      2.00000
     40      -1.9954      2.00000
     41      -1.9732      2.00000
     42      -1.9374      2.00000
     43      -1.5348      2.00000
     44      -1.5061      2.00000
     45      -1.4398      2.00000
     46      -1.2754      2.00000
     47      -1.2304      2.00000
     48      -1.1403      2.00000
     49      -0.1485      2.00000
     50      -0.0846      2.00000
     51      -0.0355      2.00000
     52       0.1091      2.00000
     53       0.2849      2.00000
     54       0.3430      2.00000
     55       0.4805      2.00000
     56       0.5614      2.00000
     57       0.6870      2.00000
     58       8.1466      0.00000
     59       8.2359      0.00000
     60       8.3068      0.00000
     61       8.6106      0.00000
     62       8.6448      0.00000
     63       8.7463      0.00000
     64       8.8780      0.00000
     65       8.9598      0.00000
     66       9.0568      0.00000
     67       9.2930      0.00000
     68       9.4546      0.00000


--------------------------------------------------------------------------------------------------------


 soft charge-density along one line, spin component 1
         0         1         2         3         4         5         6         7         8         9
 total charge-density along one line
 
 pseudopotential strength for first ion, spin component: 1
-17.414  -0.000  -0.000  13.296   0.000   0.000  -0.000   0.000
 -0.000 -17.502   0.000   0.000  13.381  -0.000   0.000  -0.000
 -0.000   0.000 -17.476   0.000  -0.000  13.356   0.000  -0.000
 13.296   0.000   0.000  -7.369  -0.000  -0.000   0.000  -0.000
  0.000  13.381  -0.000  -0.000  -7.446   0.000  -0.000   0.000
  0.000  -0.000  13.356  -0.000   0.000  -7.425  -0.000   0.000
 -0.000   0.000   0.000   0.000  -0.000  -0.000   3.393  -0.038
  0.000  -0.000  -0.000  -0.000   0.000   0.000  -0.038   0.014
 -0.000  -0.002   0.000   0.000   0.002  -0.000   0.000  -0.000
 -0.000   0.000  -0.002   0.000  -0.000   0.002   0.000  -0.000
 -0.000  -0.000   0.000   0.000   0.000  -0.000   0.005  -0.001
 -0.002  -0.000  -0.000   0.002   0.000   0.000  -0.000   0.000
 -0.000   0.000  -0.000   0.000  -0.000   0.000   0.004  -0.001
 -0.000  -0.002   0.000   0.000   0.001  -0.000   0.000  -0.000
 -0.000   0.000  -0.002   0.000  -0.000   0.001   0.000  -0.000
 -0.000  -0.000   0.000   0.000   0.000  -0.000   0.003  -0.001
 -0.002  -0.000  -0.000   0.001   0.000   0.000  -0.000   0.000
 -0.000   0.000  -0.000   0.000  -0.000   0.000   0.004  -0.001
 total augmentation occupancy for first ion, spin component: 1
  2.166   0.000  -0.000   0.228   0.000  -0.000   0.000   0.000   0.000   0.000   0.000   0.002   0.000  -0.000   0.000   0.000
  0.000   2.132   0.000   0.000   0.164   0.000   0.000   0.000   0.007   0.000   0.000  -0.000  -0.000  -0.002   0.000  -0.000
 -0.000   0.000   2.134  -0.000   0.000   0.173   0.000   0.000   0.000   0.004   0.000  -0.000  -0.000   0.000  -0.001   0.000
  0.228  -0.000  -0.000   0.323   0.000  -0.000   0.000  -0.000   0.000   0.000   0.000   0.001   0.000  -0.000   0.000   0.000
  0.000   0.164   0.000   0.000   0.211   0.000  -0.000   0.000   0.009   0.000   0.000  -0.000  -0.000  -0.002   0.000  -0.000
 -0.000   0.000   0.173  -0.000   0.000   0.233   0.000  -0.000   0.000   0.004  -0.000  -0.000   0.000   0.000  -0.001  -0.000
  0.000   0.000   0.000   0.000  -0.000   0.000   0.570  -0.206  -0.000  -0.000  -0.044   0.000  -0.066   0.000   0.000   0.024
  0.000   0.000   0.000  -0.000   0.000   0.000  -0.206   0.088   0.000   0.000   0.027   0.000   0.027  -0.000   0.000  -0.015
  0.000   0.007  -0.000  -0.000   0.009  -0.000  -0.000   0.000   0.267   0.000   0.000   0.000  -0.000  -0.127   0.000  -0.000
  0.000   0.000   0.004  -0.000   0.000   0.004  -0.000   0.000   0.000   0.107   0.000  -0.000   0.000   0.000  -0.044   0.000
  0.000   0.000  -0.000   0.000   0.000   0.000  -0.044   0.027   0.000  -0.000   0.188   0.000   0.039  -0.000   0.000  -0.087
  0.002  -0.000  -0.000   0.001  -0.000  -0.000  -0.000   0.000   0.000  -0.000   0.000   0.101   0.000  -0.000   0.000   0.000
  0.000  -0.000   0.000   0.000  -0.000  -0.000  -0.066   0.027  -0.000  -0.000   0.039  -0.000   0.074   0.000   0.000  -0.018
 -0.000  -0.002   0.000   0.000  -0.002   0.000   0.000  -0.000  -0.127  -0.000  -0.000  -0.000   0.000   0.062   0.000   0.000
 -0.000   0.000  -0.001   0.000   0.000  -0.001   0.000   0.000  -0.000  -0.044   0.000   0.000  -0.000   0.000   0.019   0.000
  0.000  -0.000   0.000   0.000  -0.000  -0.000   0.024  -0.015  -0.000   0.000  -0.087   0.000  -0.018   0.000  -0.000   0.041
 -0.001  -0.000   0.000   0.000   0.000   0.000   0.000   0.000  -0.000   0.000   0.000  -0.041   0.000   0.000  -0.000   0.000
 -0.000   0.000   0.000   0.000   0.000   0.000   0.031  -0.014   0.000   0.000  -0.018   0.000  -0.030  -0.000   0.000   0.009


------------------------ aborting loop because EDIFF is reached ----------------------------------------


 


 total charge     
 
# of ion     s       p       d       tot
----------------------------------------
  1        0.188   6.221   0.604   7.013
  2        0.196   6.212   0.618   7.026
  3        0.184   6.225   0.599   7.008
  4        1.583   3.609   0.000   5.192
  5        1.583   3.610   0.000   5.193
  6        1.581   3.617   0.000   5.198
  7        1.583   3.610   0.000   5.192
  8        1.582   3.610   0.000   5.193
  9        1.581   3.616   0.000   5.197
 10        1.583   3.610   0.000   5.193
 11        1.581   3.616   0.000   5.197
 12        1.581   3.615   0.000   5.196
 13        1.583   3.608   0.000   5.191
 14        1.582   3.612   0.000   5.194
 15        1.582   3.612   0.000   5.195
 16        1.232   2.305   0.000   3.537
 17        1.234   2.305   0.000   3.539
 18        1.231   2.304   0.000   3.536
------------------------------------------------
tot       23.251  68.917   1.820  93.988
 
    CHARGE:  cpu time    0.52: real time    0.52
    FORLOC:  cpu time    0.00: real time    0.00
    FORNL :  cpu time    3.28: real time    3.28
    STRESS:  cpu time    2.80: real time    2.81
    FORCOR:  cpu time    0.02: real time    0.01
    FORHAR:  cpu time    0.00: real time    0.01
    MIXING:  cpu time    0.00: real time    0.00
    FORVDW:  cpu time    0.10: real time    0.11

  FORCE on cell =-STRESS in cart. coord.  units (eV):
  Direction    XX          YY          ZZ          XY          YZ          ZX
  --------------------------------------------------------------------------------------
  Alpha Z   292.07589   292.07589   292.07589
  Ewald   -2086.18655 -2086.19774  -411.00682    -0.00002    -0.00007     0.00478
  Hartree   644.85602   644.85602  1868.70490    -0.00002    -0.00000    -0.00000
  E(xc)    -532.18358  -532.18381  -531.41334    -0.00024    -0.00000    -0.00001
  Local    -416.42102  -416.40996 -3286.03416    -0.00157    -0.00009    -0.00238
  n-local   -87.24628   -87.32866   -87.21987     0.17741     0.00024     0.00049
  augment   217.80389   217.80223   215.59921    -0.00279    -0.00003     0.00010
  Kinetic  1979.60585  1980.15262  1951.63535    -1.11676    -0.02772    -0.02469
  Fock        0.00000     0.00000     0.00000     0.00000     0.00000     0.00000
  -------------------------------------------------------------------------------------
  Total      12.53541    12.53541    12.34115    -0.00000    -0.00000    -0.00000
  in kB      81.61697    81.61697    80.35220    -0.00001    -0.00000    -0.00000
  external pressure =       81.20 kB  Pullay stress =        0.00 kB


 VOLUME and BASIS-vectors are now :
 -----------------------------------------------------------------------------
  energy-cutoff  :      520.00
  volume of cell :      246.08
      direct lattice vectors                 reciprocal lattice vectors
     6.779539000 -0.000000000  0.000000000     0.147502655  0.085160710 -0.000000000
    -3.389770000  5.871253000  0.000000000     0.000000000  0.170321395 -0.000000000
     0.000000000  0.000000000  6.182122000    -0.000000000 -0.000000000  0.161756756

  length of vectors
     6.779539000  6.779539250  6.182122000     0.170321401  0.170321395  0.161756756


 FORCES acting on ions
    electron-ion (+dipol)            ewald-force                    non-local-force                 convergence-correction
 -----------------------------------------------------------------------------------------------
   -.717E-03 0.177E-05 0.467E-03   -.392E-03 0.163E-02 -.861E-03   -.108E-18 -.108E-18 -.173E-17   -.168E-05 -.406E-04 0.142E-06
   -.323E-02 -.248E-02 -.378E-02   -.358E-02 -.351E-02 -.231E-02   0.163E-18 0.000E+00 0.867E-18   0.295E-04 0.235E-04 0.824E-05
   0.281E-02 -.256E-02 0.224E-04   0.513E-02 -.308E-02 0.126E-02   -.542E-19 0.271E-19 0.347E-17   -.292E-04 0.222E-04 -.858E-05
   0.816E+02 -.203E+03 0.803E+02   -.768E+02 0.238E+03 -.106E+03   -.475E+01 -.348E+02 0.259E+02   0.692E-03 -.176E-01 0.106E-01
   0.217E+03 0.310E+02 -.803E+02   -.245E+03 -.525E+02 0.106E+03   0.277E+02 0.215E+02 -.259E+02   0.156E-01 0.817E-02 -.105E-01
   -.816E+02 -.203E+03 -.803E+02   0.768E+02 0.238E+03 0.106E+03   0.475E+01 -.348E+02 -.259E+02   -.697E-03 -.176E-01 -.106E-01
   -.135E+03 0.172E+03 -.803E+02   0.168E+03 -.186E+03 0.106E+03   -.325E+02 0.133E+02 -.259E+02   -.149E-01 0.940E-02 -.106E-01
   0.135E+03 -.172E+03 -.803E+02   -.168E+03 0.186E+03 0.106E+03   0.325E+02 -.133E+02 -.259E+02   0.149E-01 -.936E-02 -.106E-01
   0.816E+02 0.203E+03 -.803E+02   -.768E+02 -.238E+03 0.106E+03   -.475E+01 0.348E+02 -.259E+02   0.655E-03 0.176E-01 -.105E-01
   -.217E+03 -.310E+02 -.803E+02   0.245E+03 0.525E+02 0.106E+03   -.277E+02 -.215E+02 -.259E+02   -.155E-01 -.821E-02 -.105E-01
   0.217E+03 -.310E+02 0.803E+02   -.245E+03 0.525E+02 -.106E+03   0.277E+02 -.215E+02 0.259E+02   0.156E-01 -.822E-02 0.105E-01
   -.217E+03 0.310E+02 0.803E+02   0.245E+03 -.525E+02 -.106E+03   -.277E+02 0.215E+02 0.259E+02   -.156E-01 0.817E-02 0.105E-01
   -.816E+02 0.203E+03 0.803E+02   0.768E+02 -.238E+03 -.106E+03   0.475E+01 0.348E+02 0.259E+02   -.650E-03 0.176E-01 0.105E-01
   -.135E+03 -.172E+03 0.803E+02   0.168E+03 0.186E+03 -.106E+03   -.325E+02 -.133E+02 0.259E+02   -.149E-01 -.935E-02 0.106E-01
   0.135E+03 0.172E+03 0.803E+02   -.168E+03 -.186E+03 -.106E+03   0.325E+02 0.133E+02 0.259E+02   0.149E-01 0.940E-02 0.106E-01
   -.213E-03 -.306E-05 0.755E-03   0.570E-04 0.147E-02 0.350E-02   -.434E-18 0.000E+00 0.000E+00   -.984E-06 -.316E-04 0.428E-06
   -.858E-03 -.670E-03 -.363E-04   -.894E-04 -.397E-02 -.333E-03   0.000E+00 0.000E+00 0.121E-16   0.227E-04 0.180E-04 -.693E-05
   0.744E-03 -.703E-03 -.993E-03   0.370E-02 -.169E-02 -.390E-02   0.000E+00 0.000E+00 0.000E+00   -.221E-04 0.171E-04 0.615E-05
 -----------------------------------------------------------------------------------------------
   0.729E-02 0.174E-01 0.370E-01   0.505E-13 0.106E-13 0.214E-13   -.434E-18 0.160E-13 -.354E-14   -.333E-05 0.225E-04 0.425E-06
 
 
 POSITION                                       TOTAL-FORCE (eV/Angst)
 -----------------------------------------------------------------------------------
      3.38977      0.00000      0.00000        -0.000000      0.000000     -0.000000
     -1.69488      2.93563      4.12142        -0.000000      0.000000     -0.000000
      1.69488      2.93563      2.06071        -0.000000      0.000000     -0.000000
     -1.42850      4.08331      0.14051         0.024135      0.073090     -0.055418
     -0.86074      5.06670      3.98090        -0.051230     -0.057447      0.055418
      1.42849      4.08331      6.04161        -0.024135      0.073090      0.055418
     -0.56776      2.59248      1.92019         0.075366     -0.015643      0.055418
      3.95754      3.27878      1.92019        -0.075366      0.015643      0.055418
      1.96127      1.78794      6.04161         0.024135     -0.073090      0.055418
      4.25051      0.80454      3.98090         0.051230      0.057447      0.055418
      2.52904      0.80454      2.20122        -0.051230      0.057447     -0.055418
      0.86073      5.06670      2.20122         0.051230     -0.057447     -0.055418
      4.81826      1.78794      0.14051        -0.024135     -0.073090     -0.055418
      2.82201      3.27878      4.26193         0.075366      0.015643     -0.055418
      0.56776      2.59248      4.26193        -0.075366     -0.015643     -0.055418
      3.38977      0.00000      3.09106        -0.000000      0.000000     -0.000000
     -1.69488      2.93563      1.03036        -0.000000      0.000000     -0.000000
      1.69488      2.93563      5.15177        -0.000000      0.000000     -0.000000
 -----------------------------------------------------------------------------------
    total drift:                                0.007286      0.017426      0.037042


--------------------------------------------------------------------------------------------------------



  FREE ENERGIE OF THE ION-ELECTRON SYSTEM (eV)
  ---------------------------------------------------
  free  energy   TOTEN  =      -116.92781152 eV

  energy  without entropy=     -116.92781152  energy(sigma->0) =     -116.92781152
 


--------------------------------------------------------------------------------------------------------


    POTLOK:  cpu time    0.03: real time    0.03


--------------------------------------------------------------------------------------------------------


     LOOP+:  cpu time  154.48: real time  154.78
    4ORBIT:  cpu time    0.00: real time    0.00
 


 total charge     
 
# of ion     s       p       d       tot
----------------------------------------
  1        0.188   6.221   0.604   7.013
  2        0.196   6.212   0.618   7.026
  3        0.184   6.225   0.599   7.008
  4        1.583   3.609   0.000   5.192
  5        1.583   3.610   0.000   5.193
  6        1.581   3.617   0.000   5.198
  7        1.583   3.610   0.000   5.192
  8        1.582   3.610   0.000   5.193
  9        1.581   3.616   0.000   5.197
 10        1.583   3.610   0.000   5.193
 11        1.581   3.616   0.000   5.197
 12        1.581   3.615   0.000   5.196
 13        1.583   3.608   0.000   5.191
 14        1.582   3.612   0.000   5.194
 15        1.582   3.612   0.000   5.195
 16        1.232   2.305   0.000   3.537
 17        1.234   2.305   0.000   3.539
 18        1.231   2.304   0.000   3.536
------------------------------------------------
tot       23.251  68.917   1.820  93.988
 
 BZINTS: Fermi energy:  0.842306;114.000000 electrons
         Band energy:-960.705719;  BLOECHL correction:  0.000000

 total amount of memory used by VASP on root node    54086. kBytes
========================================================================

   base      :      30000. kBytes
   nonl-proj :       9943. kBytes
   fftplans  :        465. kBytes
   grid      :        766. kBytes
   one-center:         31. kBytes
   wavefun   :      12881. kBytes
 
  
  
 General timing and accounting informations for this job:
 ========================================================
  
                  Total CPU time used (sec):      174.951
                            User time (sec):      174.627
                          System time (sec):        0.324
                         Elapsed time (sec):      175.388
  
                   Maximum memory used (kb):       82112.
                   Average memory used (kb):           0.
  
                          Minor page faults:        29622
                          Major page faults:            0
                 Voluntary context switches:          537
