   2   2   1   0
  0.1569237E+02  0.2482000E-09  0.4830000E-09  0.2618000E-09  0.5000000E-15
  1.000000000000000E-004
  CAR 
 unknown system                          
     19.75097639    -12.36734421  301      4.84935498      1.00000000
    -12.367  0.0000E+00  0.0000E+00
    -12.260  0.0000E+00  0.0000E+00
    -12.153  0.0000E+00  0.0000E+00
    -12.046 -0.1688E-32 -0.1808E-33
    -11.939 -0.1201E-28 -0.1286E-29
    -11.832 -0.4174E-25 -0.4470E-26
    -11.725 -0.8189E-22 -0.8771E-23
    -11.618 -0.9077E-19 -0.9726E-20
    -11.511 -0.5545E-16 -0.5946E-17
    -11.404 -0.1947E-13 -0.2091E-14
    -11.297 -0.3884E-11 -0.4179E-12
    -11.190 -0.4388E-09 -0.4740E-10
    -11.083 -0.2813E-07 -0.3059E-08
    -10.976 -0.1025E-05 -0.1128E-06
    -10.868 -0.2127E-04 -0.2390E-05
    -10.761 -0.2506E-03 -0.2922E-04
    -10.654 -0.1652E-02 -0.2061E-03
    -10.547 -0.5684E-02 -0.8147E-03
    -10.440 -0.6252E-02 -0.1484E-02
    -10.333  0.2573E-01  0.1270E-02
    -10.226  0.1316E+00  0.1536E-01
    -10.119  0.3039E+00  0.4789E-01
    -10.012  0.4383E+00  0.9482E-01
     -9.905  0.4058E+00  0.1383E+00
     -9.798  0.2231E+00  0.1621E+00
     -9.691  0.5734E-01  0.1683E+00
     -9.584 -0.4027E-02  0.1679E+00
     -9.477 -0.7738E-02  0.1670E+00
     -9.370 -0.2846E-02  0.1667E+00
     -9.263 -0.5647E-03  0.1667E+00
     -9.156  0.6475E-03  0.1667E+00
     -9.048  0.2237E-02  0.1670E+00
     -8.941  0.4042E-02  0.1674E+00
     -8.834  0.5233E-02  0.1680E+00
     -8.727  0.5485E-02  0.1685E+00
     -8.620  0.5548E-02  0.1691E+00
     -8.513  0.5735E-02  0.1698E+00
     -8.406  0.5732E-02  0.1704E+00
     -8.299  0.5388E-02  0.1709E+00
     -8.192  0.5234E-02  0.1715E+00
     -8.085  0.5839E-02  0.1721E+00
     -7.978  0.6378E-02  0.1728E+00
     -7.871  0.5864E-02  0.1734E+00
     -7.764  0.4854E-02  0.1740E+00
     -7.657  0.5049E-02  0.1745E+00
     -7.550  0.6379E-02  0.1752E+00
     -7.443  0.7074E-02  0.1759E+00
     -7.335  0.6190E-02  0.1766E+00
     -7.228  0.4837E-02  0.1771E+00
     -7.121  0.4951E-02  0.1777E+00
     -7.014  0.6306E-02  0.1783E+00
     -6.907  0.7114E-02  0.1791E+00
     -6.800  0.6780E-02  0.1798E+00
     -6.693  0.6106E-02  0.1805E+00
     -6.586  0.5779E-02  0.1811E+00
     -6.479  0.6096E-02  0.1817E+00
     -6.372  0.6686E-02  0.1825E+00
     -6.265  0.7003E-02  0.1832E+00
     -6.158  0.7235E-02  0.1840E+00
     -6.051  0.7498E-02  0.1848E+00
     -5.944  0.8028E-02  0.1856E+00
     -5.837  0.8910E-02  0.1866E+00
     -5.730  0.9114E-02  0.1876E+00
     -5.622  0.8635E-02  0.1885E+00
     -5.515  0.8555E-02  0.1894E+00
     -5.408  0.8938E-02  0.1904E+00
     -5.301  0.8424E-02  0.1913E+00
     -5.194  0.5809E-02  0.1919E+00
     -5.087  0.3159E-02  0.1922E+00
     -4.980  0.3954E-02  0.1927E+00
     -4.873  0.7070E-02  0.1934E+00
     -4.766  0.8209E-02  0.1943E+00
     -4.659  0.6284E-02  0.1950E+00
     -4.552  0.3928E-02  0.1954E+00
     -4.445  0.4042E-02  0.1958E+00
     -4.338  0.6199E-02  0.1965E+00
     -4.231  0.7463E-02  0.1973E+00
     -4.124  0.6914E-02  0.1980E+00
     -4.017  0.5555E-02  0.1986E+00
     -3.910  0.4730E-02  0.1991E+00
     -3.802  0.5391E-02  0.1997E+00
     -3.695  0.6474E-02  0.2004E+00
     -3.588  0.6819E-02  0.2011E+00
     -3.481  0.6532E-02  0.2018E+00
     -3.374  0.5933E-02  0.2025E+00
     -3.267  0.5365E-02  0.2030E+00
     -3.160  0.5670E-02  0.2036E+00
     -3.053  0.7097E-02  0.2044E+00
     -2.946  0.7874E-02  0.2052E+00
     -2.839  0.7234E-02  0.2060E+00
     -2.732  0.6185E-02  0.2067E+00
     -2.625  0.5602E-02  0.2073E+00
     -2.518  0.6305E-02  0.2080E+00
     -2.411  0.7538E-02  0.2088E+00
     -2.304  0.7635E-02  0.2096E+00
     -2.197  0.6563E-02  0.2103E+00
     -2.089  0.5321E-02  0.2108E+00
     -1.982  0.5087E-02  0.2114E+00
     -1.875  0.6241E-02  0.2121E+00
     -1.768  0.7435E-02  0.2129E+00
     -1.661  0.7548E-02  0.2137E+00
     -1.554  0.7297E-02  0.2144E+00
     -1.447  0.8254E-02  0.2153E+00
     -1.340  0.9879E-02  0.2164E+00
     -1.233  0.1021E-01  0.2175E+00
     -1.126  0.9710E-02  0.2185E+00
     -1.019  0.9748E-02  0.2196E+00
     -0.912  0.1043E-01  0.2207E+00
     -0.805  0.1079E-01  0.2218E+00
     -0.698  0.1032E-01  0.2229E+00
     -0.591  0.1041E-01  0.2241E+00
     -0.484  0.1084E-01  0.2252E+00
     -0.377  0.1015E-01  0.2263E+00
     -0.269  0.9900E-02  0.2274E+00
     -0.162  0.1129E-01  0.2286E+00
     -0.055  0.1237E-01  0.2299E+00
      0.052  0.1183E-01  0.2312E+00
      0.159  0.1057E-01  0.2323E+00
      0.266  0.1071E-01  0.2334E+00
      0.373  0.1172E-01  0.2347E+00
      0.480  0.1292E-01  0.2361E+00
      0.587  0.1432E-01  0.2376E+00
      0.694  0.1416E-01  0.2391E+00
      0.801  0.1230E-01  0.2404E+00
      0.908  0.1085E-01  0.2416E+00
      1.015  0.1135E-01  0.2428E+00
      1.122  0.1365E-01  0.2443E+00
      1.229  0.1639E-01  0.2460E+00
      1.336  0.1768E-01  0.2479E+00
      1.444  0.1626E-01  0.2497E+00
      1.551  0.1322E-01  0.2511E+00
      1.658  0.1248E-01  0.2524E+00
      1.765  0.1448E-01  0.2540E+00
      1.872  0.1538E-01  0.2556E+00
      1.979  0.1451E-01  0.2572E+00
      2.086  0.1364E-01  0.2586E+00
      2.193  0.1321E-01  0.2600E+00
      2.300  0.1308E-01  0.2614E+00
      2.407  0.1318E-01  0.2629E+00
      2.514  0.1372E-01  0.2643E+00
      2.621  0.1475E-01  0.2659E+00
      2.728  0.1549E-01  0.2676E+00
      2.835  0.1610E-01  0.2693E+00
      2.942  0.1666E-01  0.2711E+00
      3.049  0.1649E-01  0.2728E+00
      3.157  0.1600E-01  0.2746E+00
      3.264  0.1497E-01  0.2762E+00
      3.371  0.1407E-01  0.2777E+00
      3.478  0.1453E-01  0.2792E+00
      3.585  0.1539E-01  0.2809E+00
      3.692  0.1558E-01  0.2825E+00
      3.799  0.1469E-01  0.2841E+00
      3.906  0.1435E-01  0.2856E+00
      4.013  0.1520E-01  0.2873E+00
      4.120  0.1517E-01  0.2889E+00
      4.227  0.1402E-01  0.2904E+00
      4.334  0.1396E-01  0.2919E+00
      4.441  0.1550E-01  0.2935E+00
      4.548  0.1626E-01  0.2953E+00
      4.655  0.1583E-01  0.2970E+00
      4.762  0.1558E-01  0.2987E+00
      4.869  0.1551E-01  0.3003E+00
      4.977  0.1558E-01  0.3020E+00
      5.084  0.1506E-01  0.3036E+00
      5.191  0.1459E-01  0.3052E+00
      5.298  0.1524E-01  0.3068E+00
      5.405  0.1430E-01  0.3083E+00
      5.512  0.1200E-01  0.3096E+00
      5.619  0.1128E-01  0.3108E+00
      5.726  0.1082E-01  0.3120E+00
      5.833  0.9334E-02  0.3130E+00
      5.940  0.9023E-02  0.3139E+00
      6.047  0.1108E-01  0.3151E+00
      6.154  0.1414E-01  0.3166E+00
      6.261  0.1563E-01  0.3183E+00
      6.368  0.1434E-01  0.3198E+00
      6.475  0.1299E-01  0.3212E+00
      6.582  0.1261E-01  0.3226E+00
      6.690  0.1205E-01  0.3239E+00
      6.797  0.1255E-01  0.3252E+00
      6.904  0.1470E-01  0.3268E+00
      7.011  0.1708E-01  0.3286E+00
      7.118  0.1834E-01  0.3306E+00
      7.225  0.1743E-01  0.3324E+00
      7.332  0.1475E-01  0.3340E+00
      7.439  0.1270E-01  0.3354E+00
      7.546  0.1229E-01  0.3367E+00
      7.653  0.1275E-01  0.3381E+00
      7.760  0.1314E-01  0.3395E+00
      7.867  0.1378E-01  0.3410E+00
      7.974  0.1561E-01  0.3426E+00
      8.081  0.1740E-01  0.3445E+00
      8.188  0.1634E-01  0.3462E+00
      8.295  0.1372E-01  0.3477E+00
      8.403  0.1259E-01  0.3491E+00
      8.510  0.1324E-01  0.3505E+00
      8.617  0.1451E-01  0.3520E+00
      8.724  0.1541E-01  0.3537E+00
      8.831  0.1712E-01  0.3555E+00
      8.938  0.1776E-01  0.3574E+00
      9.045  0.1584E-01  0.3591E+00
      9.152  0.1473E-01  0.3607E+00
      9.259  0.1619E-01  0.3624E+00
      9.366  0.1836E-01  0.3644E+00
      9.473  0.2009E-01  0.3665E+00
      9.580  0.2187E-01  0.3689E+00
      9.687  0.2305E-01  0.3713E+00
      9.794  0.2354E-01  0.3739E+00
      9.901  0.2380E-01  0.3764E+00
     10.008  0.2206E-01  0.3788E+00
     10.115  0.1832E-01  0.3807E+00
     10.223  0.1533E-01  0.3824E+00
     10.330  0.1491E-01  0.3840E+00
     10.437  0.1660E-01  0.3857E+00
     10.544  0.1883E-01  0.3878E+00
     10.651  0.1899E-01  0.3898E+00
     10.758  0.1750E-01  0.3917E+00
     10.865  0.1675E-01  0.3935E+00
     10.972  0.1550E-01  0.3951E+00
     11.079  0.1373E-01  0.3966E+00
     11.186  0.1330E-01  0.3980E+00
     11.293  0.1355E-01  0.3995E+00
     11.400  0.1330E-01  0.4009E+00
     11.507  0.1361E-01  0.4023E+00
     11.614  0.1401E-01  0.4038E+00
     11.721  0.1271E-01  0.4052E+00
     11.828  0.1088E-01  0.4064E+00
     11.936  0.1010E-01  0.4075E+00
     12.043  0.1027E-01  0.4086E+00
     12.150  0.1115E-01  0.4097E+00
     12.257  0.1165E-01  0.4110E+00
     12.364  0.1057E-01  0.4121E+00
     12.471  0.8833E-02  0.4131E+00
     12.578  0.8169E-02  0.4139E+00
     12.685  0.8306E-02  0.4148E+00
     12.792  0.7718E-02  0.4157E+00
     12.899  0.6378E-02  0.4163E+00
     13.006  0.6110E-02  0.4170E+00
     13.113  0.7313E-02  0.4178E+00
     13.220  0.8543E-02  0.4187E+00
     13.327  0.8773E-02  0.4196E+00
     13.434  0.7805E-02  0.4205E+00
     13.541  0.6567E-02  0.4212E+00
     13.648  0.6235E-02  0.4218E+00
     13.756  0.7262E-02  0.4226E+00
     13.863  0.8759E-02  0.4236E+00
     13.970  0.9155E-02  0.4245E+00
     14.077  0.7902E-02  0.4254E+00
     14.184  0.6061E-02  0.4260E+00
     14.291  0.4948E-02  0.4266E+00
     14.398  0.5159E-02  0.4271E+00
     14.505  0.5675E-02  0.4277E+00
     14.612  0.5030E-02  0.4283E+00
     14.719  0.4463E-02  0.4287E+00
     14.826  0.5220E-02  0.4293E+00
     14.933  0.4973E-02  0.4298E+00
     15.040  0.3597E-02  0.4302E+00
     15.147  0.3814E-02  0.4306E+00
     15.254  0.4833E-02  0.4311E+00
     15.361  0.4384E-02  0.4316E+00
     15.469  0.2785E-02  0.4319E+00
     15.576  0.1799E-02  0.4321E+00
     15.683  0.1862E-02  0.4323E+00
     15.790  0.2006E-02  0.4325E+00
     15.897  0.1782E-02  0.4327E+00
     16.004  0.1358E-02  0.4328E+00
     16.111  0.8097E-03  0.4329E+00
     16.218  0.2930E-03  0.4330E+00
     16.325  0.1250E-03  0.4330E+00
     16.432  0.4357E-03  0.4330E+00
     16.539  0.7750E-03  0.4331E+00
     16.646  0.6066E-03  0.4332E+00
     16.753  0.1819E-03  0.4332E+00
     16.860 -0.2384E-04  0.4332E+00
     16.967 -0.3084E-04  0.4332E+00
     17.074  0.1176E-04  0.4332E+00
     17.182  0.7002E-04  0.4332E+00
     17.289  0.1553E-03  0.4332E+00
     17.396  0.3029E-03  0.4332E+00
     17.503  0.3683E-03  0.4333E+00
     17.610  0.2293E-03  0.4333E+00
     17.717  0.1035E-03  0.4333E+00
     17.824  0.7948E-04  0.4333E+00
     17.931  0.4264E-04  0.4333E+00
     18.038  0.2959E-05  0.4333E+00
     18.145 -0.5002E-05  0.4333E+00
     18.252 -0.1736E-05  0.4333E+00
     18.359 -0.2386E-06  0.4333E+00
     18.466 -0.1617E-07  0.4333E+00
     18.573 -0.5768E-09  0.4333E+00
     18.680 -0.1113E-10  0.4333E+00
     18.787 -0.1178E-12  0.4333E+00
     18.894 -0.6892E-15  0.4333E+00
     19.002 -0.2259E-17  0.4333E+00
     19.109  0.0000E+00  0.4333E+00
     19.216  0.0000E+00  0.4333E+00
     19.323  0.0000E+00  0.4333E+00
     19.430  0.0000E+00  0.4333E+00
     19.537  0.0000E+00  0.4333E+00
     19.644  0.0000E+00  0.4333E+00
     19.751  0.0000E+00  0.4333E+00
     19.75097639    -12.36734421  301      4.84935498      1.00000000
    -12.367  0.0000E+00  0.0000E+00  0.0000E+00  0.0000E+00  0.0000E+00  0.0000E+00  0.0000E+00  0.0000E+00  0.0000E+00
    -12.260  0.0000E+00  0.0000E+00  0.0000E+00  0.0000E+00  0.0000E+00  0.0000E+00  0.0000E+00  0.0000E+00  0.0000E+00
    -12.153  0.0000E+00  0.0000E+00  0.0000E+00  0.0000E+00  0.0000E+00  0.0000E+00  0.0000E+00  0.0000E+00  0.0000E+00
    -12.046 -0.9183E-34 -0.2818E-35 -0.3585E-36 -0.1413E-37 -0.1170E-38 -0.1306E-36 -0.3584E-37 -0.2246E-39 -0.3878E-36
    -11.939 -0.6465E-30 -0.2035E-31 -0.3619E-32 -0.1812E-33 -0.1248E-34 -0.9858E-33 -0.2937E-33 -0.2533E-35 -0.2786E-32
    -11.832 -0.2228E-26 -0.7114E-28 -0.1333E-28 -0.7336E-30 -0.4750E-31 -0.3507E-29 -0.1057E-29 -0.9617E-32 -0.9664E-29
    -11.725 -0.4346E-23 -0.1405E-24 -0.2805E-25 -0.1709E-26 -0.1024E-27 -0.7080E-26 -0.2168E-26 -0.2077E-28 -0.1893E-25
    -11.618 -0.4807E-20 -0.1568E-21 -0.3383E-22 -0.2315E-23 -0.1269E-24 -0.8147E-23 -0.2549E-23 -0.2567E-25 -0.2096E-22
    -11.511 -0.2949E-17 -0.9674E-19 -0.2310E-19 -0.1817E-20 -0.8982E-22 -0.5256E-20 -0.1690E-20 -0.1790E-22 -0.1279E-19
    -11.404 -0.1050E-14 -0.3429E-16 -0.9135E-17 -0.8268E-18 -0.3745E-19 -0.1968E-17 -0.6561E-18 -0.7270E-20 -0.4495E-17
    -11.297 -0.2157E-12 -0.6942E-14 -0.2121E-14 -0.2247E-15 -0.9459E-17 -0.4305E-15 -0.1500E-15 -0.1740E-17 -0.8980E-15
    -11.190 -0.2565E-10 -0.8031E-12 -0.2873E-12 -0.3605E-13 -0.1475E-14 -0.5508E-13 -0.2029E-13 -0.2480E-15 -0.1019E-12
    -11.083 -0.1783E-08 -0.5362E-10 -0.2277E-10 -0.3415E-11 -0.1445E-12 -0.4155E-11 -0.1640E-11 -0.2161E-13 -0.6615E-11
    -10.976 -0.7297E-07 -0.2102E-08 -0.1057E-08 -0.1912E-09 -0.8950E-11 -0.1857E-09 -0.8017E-10 -0.1194E-11 -0.2482E-09
    -10.868 -0.1761E-05 -0.4969E-07 -0.2858E-07 -0.6345E-08 -0.3471E-09 -0.4913E-08 -0.2381E-08 -0.4350E-10 -0.5504E-08
    -10.761 -0.2478E-04 -0.7316E-06 -0.4462E-06 -0.1248E-06 -0.8266E-08 -0.7607E-07 -0.4273E-07 -0.1057E-08 -0.7477E-07
    -10.654 -0.1957E-03 -0.6794E-05 -0.3923E-05 -0.1443E-05 -0.1174E-06 -0.6714E-06 -0.4509E-06 -0.1656E-07 -0.6443E-06
    -10.547 -0.7781E-03 -0.3791E-04 -0.1823E-04 -0.9453E-05 -0.9433E-06 -0.3173E-05 -0.2597E-05 -0.1543E-06 -0.3455E-05
    -10.440 -0.8417E-03 -0.1029E-03 -0.3401E-04 -0.3024E-04 -0.3783E-05 -0.6338E-05 -0.6333E-05 -0.7466E-06 -0.9499E-05
    -10.333  0.4393E-02  0.2497E-04  0.4953E-04 -0.8362E-05 -0.3651E-05  0.6271E-05  0.5935E-05 -0.1178E-05  0.9048E-06
    -10.226  0.1849E-01  0.9555E-03  0.4051E-03  0.2447E-03  0.2412E-04  0.6669E-04  0.6800E-04  0.3765E-05  0.8579E-04
    -10.119  0.3223E-01  0.2654E-02  0.1020E-02  0.7533E-03  0.9170E-04  0.1878E-03  0.1527E-03  0.1876E-04  0.2523E-03
    -10.012  0.3248E-01  0.3619E-02  0.1505E-02  0.1009E-02  0.1385E-03  0.3117E-03  0.1665E-03  0.3139E-04  0.3660E-03
     -9.905  0.2063E-01  0.2869E-02  0.1353E-02  0.6781E-03  0.1074E-03  0.3093E-03  0.9994E-04  0.2581E-04  0.3145E-03
     -9.798  0.7606E-02  0.1317E-02  0.6551E-03  0.2000E-03  0.4138E-04  0.1613E-03  0.3011E-04  0.1041E-04  0.1592E-03
     -9.691  0.6565E-03  0.2428E-03  0.1009E-03 -0.1138E-04  0.2816E-05  0.2774E-04 -0.3554E-06  0.9286E-06  0.3464E-04
     -9.584 -0.8806E-03 -0.7400E-04 -0.4544E-04 -0.2675E-04 -0.4119E-05 -0.1029E-04 -0.3728E-05 -0.9384E-06 -0.7315E-05
     -9.477 -0.1338E-02 -0.5513E-04 -0.2681E-04 -0.9565E-05 -0.1714E-05 -0.6179E-05 -0.1626E-05 -0.4226E-06 -0.7821E-05
     -9.370 -0.2893E-02 -0.1451E-04 -0.1092E-04 -0.6735E-05 -0.3052E-06 -0.1399E-05 -0.1178E-05 -0.8326E-07 -0.5604E-05
     -9.263 -0.4373E-03 -0.2397E-05 -0.1063E-04 -0.1072E-04 -0.2997E-07 -0.1861E-06 -0.3691E-06 -0.1641E-07 -0.1063E-05
     -9.156  0.1972E-01  0.1631E-05  0.5453E-05  0.5470E-05 -0.1828E-08 -0.1585E-07  0.6032E-05 -0.1226E-07  0.2640E-04
     -9.048  0.6380E-01  0.8212E-05  0.9028E-04  0.9666E-04  0.9668E-08  0.1467E-08  0.2125E-04  0.1717E-07  0.8746E-04
     -8.941  0.1177E+00  0.1677E-04  0.2958E-03  0.3121E-03  0.3652E-07  0.7320E-08  0.4099E-04  0.1514E-06  0.1624E-03
     -8.834  0.1547E+00  0.2305E-04  0.5788E-03  0.6015E-03  0.7533E-07  0.1549E-07  0.5474E-04  0.4568E-06  0.2114E-03
     -8.727  0.1637E+00  0.2472E-04  0.8692E-03  0.9180E-03  0.1097E-06  0.2432E-07  0.5842E-04  0.9618E-06  0.2160E-03
     -8.620  0.1656E+00  0.2424E-04  0.1226E-02  0.1326E-02  0.1498E-06  0.3648E-07  0.6003E-04  0.1645E-05  0.2018E-03
     -8.513  0.1706E+00  0.2624E-04  0.1635E-02  0.1743E-02  0.2056E-06  0.5879E-07  0.6235E-04  0.2593E-05  0.1902E-03
     -8.406  0.1715E+00  0.2821E-04  0.1974E-02  0.2015E-02  0.2336E-06  0.8122E-07  0.6116E-04  0.4012E-05  0.1835E-03
     -8.299  0.1621E+00  0.2587E-04  0.2124E-02  0.2170E-02  0.2305E-06  0.8778E-07  0.5855E-04  0.5287E-05  0.1677E-03
     -8.192  0.1568E+00  0.2344E-04  0.2288E-02  0.2551E-02  0.2648E-06  0.9244E-07  0.6937E-04  0.6204E-05  0.1448E-03
     -8.085  0.1741E+00  0.2637E-04  0.2853E-02  0.3265E-02  0.3482E-06  0.1294E-06  0.9311E-04  0.8128E-05  0.1419E-03
     -7.978  0.1911E+00  0.3171E-04  0.3548E-02  0.3712E-02  0.4032E-06  0.1898E-06  0.1018E-03  0.1111E-04  0.1546E-03
     -7.871  0.1777E+00  0.3082E-04  0.3688E-02  0.3445E-02  0.3650E-06  0.2076E-06  0.8326E-04  0.1298E-04  0.1529E-03
     -7.764  0.1478E+00  0.2282E-04  0.3226E-02  0.3184E-02  0.2917E-06  0.1616E-06  0.7339E-04  0.1348E-04  0.1221E-03
     -7.657  0.1515E+00  0.2008E-04  0.3299E-02  0.4004E-02  0.3550E-06  0.1467E-06  0.1153E-03  0.1589E-04  0.9796E-04
     -7.550  0.1910E+00  0.2899E-04  0.4339E-02  0.5360E-02  0.5477E-06  0.2404E-06  0.1857E-03  0.2034E-04  0.1134E-03
     -7.443  0.2149E+00  0.3612E-04  0.5333E-02  0.5784E-02  0.6034E-06  0.3451E-06  0.2180E-03  0.2321E-04  0.1477E-03
     -7.335  0.1906E+00  0.3081E-04  0.5328E-02  0.4793E-02  0.4467E-06  0.3354E-06  0.1787E-03  0.2300E-04  0.1542E-03
     -7.228  0.1485E+00  0.2171E-04  0.4580E-02  0.3946E-02  0.3082E-06  0.2599E-06  0.1195E-03  0.2474E-04  0.1169E-03
     -7.121  0.1499E+00  0.2091E-04  0.4451E-02  0.4939E-02  0.4023E-06  0.2387E-06  0.1436E-03  0.3218E-04  0.8828E-04
     -7.014  0.1920E+00  0.2784E-04  0.5165E-02  0.6783E-02  0.6426E-06  0.3004E-06  0.2801E-03  0.3722E-04  0.1109E-03
     -6.907  0.2204E+00  0.3209E-04  0.5805E-02  0.7337E-02  0.7022E-06  0.3770E-06  0.4221E-03  0.3380E-04  0.1629E-03
     -6.800  0.2124E+00  0.2968E-04  0.6139E-02  0.6400E-02  0.5454E-06  0.4049E-06  0.4467E-03  0.3064E-04  0.1961E-03
     -6.693  0.1908E+00  0.2709E-04  0.6454E-02  0.5664E-02  0.4421E-06  0.4125E-06  0.3506E-03  0.3864E-04  0.1775E-03
     -6.586  0.1793E+00  0.2698E-04  0.6585E-02  0.6094E-02  0.4771E-06  0.4190E-06  0.2524E-03  0.5247E-04  0.1344E-03
     -6.479  0.1902E+00  0.2664E-04  0.6359E-02  0.7124E-02  0.5737E-06  0.3849E-06  0.3261E-03  0.5738E-04  0.1426E-03
     -6.372  0.2127E+00  0.2626E-04  0.5726E-02  0.7507E-02  0.6302E-06  0.3431E-06  0.5969E-03  0.4652E-04  0.2228E-03
     -6.265  0.2271E+00  0.2657E-04  0.5432E-02  0.6979E-02  0.5654E-06  0.3498E-06  0.8353E-03  0.3513E-04  0.3086E-03
     -6.158  0.2352E+00  0.2818E-04  0.6408E-02  0.6980E-02  0.5112E-06  0.4057E-06  0.8435E-03  0.4508E-04  0.3254E-03
     -6.051  0.2421E+00  0.3174E-04  0.7791E-02  0.7923E-02  0.5801E-06  0.4924E-06  0.7245E-03  0.6866E-04  0.2845E-03
     -5.944  0.2622E+00  0.3396E-04  0.8066E-02  0.8607E-02  0.6263E-06  0.5132E-06  0.8348E-03  0.7911E-04  0.3228E-03
     -5.837  0.2997E+00  0.3379E-04  0.6836E-02  0.8117E-02  0.5707E-06  0.4094E-06  0.1315E-02  0.6489E-04  0.5075E-03
     -5.730  0.3154E+00  0.3166E-04  0.4950E-02  0.6567E-02  0.4462E-06  0.2777E-06  0.1739E-02  0.4062E-04  0.6819E-03
     -5.622  0.3017E+00  0.2781E-04  0.4363E-02  0.5733E-02  0.3385E-06  0.2182E-06  0.1736E-02  0.3686E-04  0.7185E-03
     -5.515  0.2937E+00  0.2668E-04  0.5989E-02  0.7195E-02  0.4040E-06  0.2877E-06  0.1433E-02  0.6360E-04  0.6425E-03
     -5.408  0.3021E+00  0.1964E-04  0.8218E-02  0.9588E-02  0.5675E-06  0.4142E-06  0.1164E-02  0.9188E-04  0.5438E-03
     -5.301  0.2870E+00 -0.3706E-04  0.8305E-02  0.9651E-02  0.5299E-06  0.3380E-06  0.1033E-02  0.8657E-04  0.4780E-03
     -5.194  0.2031E+00 -0.1153E-03  0.5361E-02  0.6143E-02  0.1958E-06 -0.1790E-07  0.8115E-03  0.4735E-04  0.3771E-03
     -5.087  0.1096E+00  0.2365E-03  0.2553E-02  0.2691E-02 -0.4229E-07  0.1700E-07  0.4954E-03  0.1633E-04  0.2528E-03
     -4.980  0.1208E+00  0.1535E-02  0.3682E-02  0.4104E-02  0.5922E-06  0.1603E-05  0.4171E-03  0.3265E-04  0.2392E-03
     -4.873  0.2096E+00  0.3147E-02  0.7484E-02  0.8869E-02  0.2798E-05  0.5270E-05  0.5507E-03  0.7765E-04  0.3121E-03
     -4.766  0.2366E+00  0.4582E-02  0.9016E-02  0.1042E-01  0.6493E-05  0.1164E-04  0.5469E-03  0.9364E-04  0.3301E-03
     -4.659  0.1591E+00  0.6105E-02  0.6395E-02  0.6543E-02  0.9614E-05  0.1829E-04  0.3465E-03  0.6033E-04  0.2694E-03
     -4.552  0.7081E-01  0.7057E-02  0.2691E-02  0.2127E-02  0.1327E-04  0.2255E-04  0.1898E-03  0.1642E-04  0.1968E-03
     -4.445  0.6428E-01  0.8207E-02  0.1758E-02  0.2227E-02  0.2269E-04  0.3428E-04  0.2189E-03  0.7021E-05  0.1779E-03
     -4.338  0.1288E+00  0.9169E-02  0.4247E-02  0.5982E-02  0.3004E-04  0.5129E-04  0.3173E-03  0.3528E-04  0.2422E-03
     -4.231  0.1802E+00  0.8266E-02  0.7229E-02  0.8640E-02  0.3030E-04  0.5661E-04  0.3162E-03  0.6600E-04  0.3219E-03
     -4.124  0.1599E+00  0.8436E-02  0.7364E-02  0.7200E-02  0.3679E-04  0.5802E-04  0.2095E-03  0.6401E-04  0.3513E-03
     -4.017  0.9344E-01  0.1053E-01  0.4665E-02  0.3430E-02  0.4856E-04  0.6660E-04  0.1148E-03  0.3321E-04  0.3285E-03
     -3.910  0.4851E-01  0.1227E-01  0.1890E-02  0.1476E-02  0.5857E-04  0.9086E-04  0.1103E-03  0.7126E-05  0.2724E-03
     -3.802  0.6375E-01  0.1315E-01  0.1458E-02  0.3047E-02  0.6701E-04  0.1207E-03  0.1782E-03  0.6763E-05  0.2643E-03
     -3.695  0.1132E+00  0.1207E-01  0.3419E-02  0.5732E-02  0.6958E-04  0.1205E-03  0.2225E-03  0.2435E-04  0.3353E-03
     -3.588  0.1382E+00  0.1081E-01  0.5403E-02  0.6382E-02  0.6938E-04  0.1132E-03  0.1837E-03  0.3824E-04  0.4195E-03
     -3.481  0.1149E+00  0.1208E-01  0.5321E-02  0.4439E-02  0.8413E-04  0.1301E-03  0.1117E-03  0.3319E-04  0.4660E-03
     -3.374  0.6962E-01  0.1420E-01  0.3550E-02  0.1817E-02  0.1098E-03  0.1603E-03  0.7393E-04  0.1545E-04  0.4631E-03
     -3.267  0.4402E-01  0.1429E-01  0.1765E-02  0.9179E-03  0.1098E-03  0.1790E-03  0.9438E-04  0.3208E-05  0.4486E-03
     -3.160  0.6211E-01  0.1336E-01  0.1243E-02  0.2541E-02  0.1033E-03  0.1715E-03  0.1643E-03  0.4491E-05  0.4982E-03
     -3.053  0.1012E+00  0.1466E-01  0.2072E-02  0.4558E-02  0.1227E-03  0.1933E-03  0.2216E-03  0.1211E-04  0.6342E-03
     -2.946  0.1100E+00  0.1633E-01  0.2893E-02  0.4333E-02  0.1345E-03  0.2533E-03  0.2043E-03  0.1498E-04  0.7437E-03
     -2.839  0.8158E-01  0.1594E-01  0.2700E-02  0.2229E-02  0.1379E-03  0.2655E-03  0.1543E-03  0.9947E-05  0.7867E-03
     -2.732  0.5568E-01  0.1403E-01  0.2040E-02  0.6043E-03  0.1404E-03  0.2233E-03  0.1277E-03  0.3231E-05  0.7805E-03
     -2.625  0.5675E-01  0.1213E-01  0.1540E-02  0.6463E-03  0.1380E-03  0.1888E-03  0.1351E-03  0.8823E-06  0.7366E-03
     -2.518  0.7326E-01  0.1388E-01  0.1128E-02  0.1637E-02  0.1669E-03  0.2270E-03  0.1756E-03  0.2004E-05  0.7364E-03
     -2.411  0.7934E-01  0.1781E-01  0.7240E-03  0.2067E-02  0.2078E-03  0.3241E-03  0.2092E-03  0.2666E-05  0.8046E-03
     -2.304  0.6870E-01  0.1845E-01  0.2874E-03  0.1420E-02  0.2012E-03  0.3852E-03  0.2007E-03  0.1638E-05  0.8610E-03
     -2.197  0.5371E-01  0.1600E-01 -0.2111E-03  0.5761E-03  0.1649E-03  0.3786E-03  0.1569E-03  0.1871E-06  0.7930E-03
     -2.089  0.3808E-01  0.1351E-01  0.8254E-03  0.2419E-03  0.1490E-03  0.3334E-03  0.1097E-03 -0.4144E-06  0.6040E-03
     -1.982  0.2192E-01  0.1340E-01  0.6502E-02  0.2673E-03  0.1731E-03  0.3142E-03  0.1008E-03  0.1792E-05  0.4440E-03
     -1.875  0.1569E-01  0.1529E-01  0.1550E-01  0.3510E-03  0.2152E-03  0.3136E-03  0.1558E-03  0.1057E-04  0.5038E-03
     -1.768  0.1842E-01  0.1689E-01  0.2184E-01  0.1853E-03  0.2387E-03  0.3246E-03  0.2097E-03  0.2620E-04  0.6597E-03
     -1.661  0.1774E-01  0.1809E-01  0.2321E-01  0.1919E-05  0.2433E-03  0.4055E-03  0.1910E-03  0.3999E-04  0.6045E-03
     -1.554  0.1459E-01  0.1835E-01  0.2522E-01  0.1884E-02  0.2287E-03  0.5149E-03  0.1671E-03  0.5594E-04  0.4428E-03
     -1.447  0.1746E-01  0.1792E-01  0.3522E-01  0.7183E-02  0.2136E-03  0.5992E-03  0.2510E-03  0.9010E-04  0.4802E-03
     -1.340  0.2463E-01  0.1770E-01  0.4741E-01  0.1304E-01  0.2199E-03  0.6163E-03  0.4052E-03  0.1264E-03  0.6640E-03
     -1.233  0.2812E-01  0.1680E-01  0.4811E-01  0.1927E-01  0.2144E-03  0.5373E-03  0.4858E-03  0.1522E-03  0.7410E-03
     -1.126  0.2593E-01  0.1622E-01  0.4047E-01  0.3107E-01  0.2143E-03  0.4291E-03  0.4907E-03  0.1993E-03  0.6503E-03
     -1.019  0.2248E-01  0.1765E-01  0.3487E-01  0.4640E-01  0.2509E-03  0.3840E-03  0.4818E-03  0.2802E-03  0.5336E-03
     -0.912  0.2316E-01  0.2156E-01  0.3197E-01  0.5510E-01  0.2926E-03  0.4129E-03  0.4874E-03  0.3585E-03  0.5440E-03
     -0.805  0.2505E-01  0.2598E-01  0.2770E-01  0.5487E-01  0.2985E-03  0.4691E-03  0.4647E-03  0.3638E-03  0.6208E-03
     -0.698  0.2164E-01  0.2878E-01  0.2455E-01  0.5358E-01  0.2661E-03  0.5413E-03  0.4215E-03  0.3273E-03  0.5791E-03
     -0.591  0.1844E-01  0.2913E-01  0.3740E-01  0.5604E-01  0.2302E-03  0.5630E-03  0.5592E-03  0.4480E-03  0.4525E-03
     -0.484  0.2103E-01  0.2598E-01  0.5686E-01  0.5648E-01  0.1962E-03  0.4678E-03  0.8124E-03  0.6691E-03  0.3976E-03
     -0.377  0.2237E-01  0.2648E-01  0.5511E-01  0.4603E-01  0.1838E-03  0.4062E-03  0.8414E-03  0.6564E-03  0.3961E-03
     -0.269  0.2035E-01  0.3729E-01  0.3784E-01  0.3627E-01  0.2312E-03  0.5574E-03  0.6808E-03  0.4837E-03  0.4368E-03
     -0.162  0.1998E-01  0.4874E-01  0.3313E-01  0.4127E-01  0.3026E-03  0.7801E-03  0.6300E-03  0.5256E-03  0.5384E-03
     -0.055  0.2085E-01  0.5062E-01  0.4525E-01  0.5150E-01  0.3426E-03  0.8148E-03  0.7159E-03  0.7668E-03  0.6767E-03
      0.052  0.2095E-01  0.4402E-01  0.5016E-01  0.6280E-01  0.3177E-03  0.6452E-03  0.7667E-03  0.8946E-03  0.8744E-03
      0.159  0.1950E-01  0.3870E-01  0.3817E-01  0.7626E-01  0.2518E-03  0.5009E-03  0.7333E-03  0.8099E-03  0.1099E-02
      0.266  0.1856E-01  0.4340E-01  0.3270E-01  0.8326E-01  0.2316E-03  0.5872E-03  0.7839E-03  0.7399E-03  0.1290E-02
      0.373  0.2030E-01  0.4740E-01  0.4453E-01  0.7691E-01  0.2556E-03  0.7345E-03  0.1071E-02  0.7548E-03  0.1311E-02
      0.480  0.2467E-01  0.4666E-01  0.6625E-01  0.6998E-01  0.3251E-03  0.7991E-03  0.1619E-02  0.8387E-03  0.1212E-02
      0.587  0.2875E-01  0.4851E-01  0.9004E-01  0.6999E-01  0.4236E-03  0.8543E-03  0.2134E-02  0.1050E-02  0.1103E-02
      0.694  0.2749E-01  0.5208E-01  0.9756E-01  0.6198E-01  0.4615E-03  0.9412E-03  0.2149E-02  0.1156E-02  0.9213E-03
      0.801  0.2130E-01  0.5319E-01  0.8202E-01  0.4782E-01  0.4075E-03  0.9681E-03  0.1716E-02  0.1002E-02  0.8245E-03
      0.908  0.1724E-01  0.4855E-01  0.6675E-01  0.5138E-01  0.2973E-03  0.7899E-03  0.1430E-02  0.9072E-03  0.1002E-02
      1.015  0.1909E-01  0.4797E-01  0.6516E-01  0.7062E-01  0.2643E-03  0.6570E-03  0.1471E-02  0.9816E-03  0.1278E-02
      1.122  0.2457E-01  0.6208E-01  0.7147E-01  0.7883E-01  0.4032E-03  0.9185E-03  0.1538E-02  0.9769E-03  0.1549E-02
      1.229  0.3027E-01  0.7614E-01  0.9133E-01  0.7948E-01  0.5656E-03  0.1319E-02  0.1795E-02  0.9419E-03  0.1935E-02
      1.336  0.3195E-01  0.7157E-01  0.1076E+00  0.1045E+00  0.5570E-03  0.1419E-02  0.2277E-02  0.1002E-02  0.2411E-02
      1.444  0.2860E-01  0.5901E-01  0.8466E-01  0.1371E+00  0.4137E-03  0.1252E-02  0.2309E-02  0.9303E-03  0.2767E-02
      1.551  0.2382E-01  0.5750E-01  0.4522E-01  0.1239E+00  0.3689E-03  0.1150E-02  0.1840E-02  0.6420E-03  0.2635E-02
      1.658  0.2455E-01  0.6771E-01  0.4147E-01  0.8995E-01  0.5598E-03  0.1234E-02  0.1847E-02  0.5329E-03  0.2354E-02
      1.765  0.3233E-01  0.7043E-01  0.7277E-01  0.9080E-01  0.7522E-03  0.1177E-02  0.2624E-02  0.7839E-03  0.2387E-02
      1.872  0.3922E-01  0.6032E-01  0.9612E-01  0.1013E+00  0.7185E-03  0.9741E-03  0.3289E-02  0.9721E-03  0.2403E-02
      1.979  0.3937E-01  0.5805E-01  0.9341E-01  0.8075E-01  0.6608E-03  0.1103E-02  0.3342E-02  0.8162E-03  0.2154E-02
      2.086  0.3361E-01  0.6786E-01  0.8879E-01  0.4791E-01  0.7520E-03  0.1437E-02  0.3326E-02  0.6060E-03  0.1778E-02
      2.193  0.2616E-01  0.7639E-01  0.9324E-01  0.3528E-01  0.8545E-03  0.1526E-02  0.3476E-02  0.5847E-03  0.1525E-02
      2.300  0.2213E-01  0.8025E-01  0.8728E-01  0.3731E-01  0.9839E-03  0.1459E-02  0.3304E-02  0.6251E-03  0.1510E-02
      2.407  0.2210E-01  0.8237E-01  0.6624E-01  0.3915E-01  0.1134E-02  0.1488E-02  0.2709E-02  0.6201E-03  0.1671E-02
      2.514  0.2428E-01  0.8162E-01  0.4886E-01  0.5135E-01  0.1187E-02  0.1528E-02  0.2244E-02  0.6525E-03  0.2136E-02
      2.621  0.2796E-01  0.8479E-01  0.4264E-01  0.8145E-01  0.1189E-02  0.1474E-02  0.2349E-02  0.6920E-03  0.3050E-02
      2.728  0.3116E-01  0.9593E-01  0.4104E-01  0.1072E+00  0.1122E-02  0.1420E-02  0.2732E-02  0.6065E-03  0.3963E-02
      2.835  0.3338E-01  0.1051E+00  0.4704E-01  0.1087E+00  0.1114E-02  0.1382E-02  0.3167E-02  0.5669E-03  0.4472E-02
      2.942  0.3443E-01  0.1064E+00  0.6337E-01  0.8853E-01  0.1182E-02  0.1396E-02  0.3618E-02  0.7168E-03  0.4417E-02
      3.049  0.3202E-01  0.1050E+00  0.7275E-01  0.6496E-01  0.1184E-02  0.1510E-02  0.3647E-02  0.8132E-03  0.3850E-02
      3.157  0.2867E-01  0.1082E+00  0.6590E-01  0.5740E-01  0.1147E-02  0.1568E-02  0.3207E-02  0.7948E-03  0.3497E-02
      3.264  0.2853E-01  0.1052E+00  0.6219E-01  0.6051E-01  0.1030E-02  0.1376E-02  0.2943E-02  0.8725E-03  0.3503E-02
      3.371  0.3027E-01  0.9107E-01  0.7299E-01  0.5936E-01  0.1040E-02  0.1144E-02  0.3406E-02  0.9504E-03  0.3373E-02
      3.478  0.3041E-01  0.8317E-01  0.8331E-01  0.5695E-01  0.1285E-02  0.1195E-02  0.4376E-02  0.8850E-03  0.3058E-02
      3.585  0.2849E-01  0.8971E-01  0.8144E-01  0.6076E-01  0.1401E-02  0.1396E-02  0.5099E-02  0.7944E-03  0.3028E-02
      3.692  0.2726E-01  0.1000E+00  0.7103E-01  0.6441E-01  0.1220E-02  0.1511E-02  0.4916E-02  0.7522E-03  0.3309E-02
      3.799  0.2699E-01  0.9824E-01  0.6341E-01  0.5805E-01  0.9778E-03  0.1409E-02  0.4193E-02  0.7862E-03  0.3160E-02
      3.906  0.2653E-01  0.9843E-01  0.6835E-01  0.4686E-01  0.1035E-02  0.1243E-02  0.4162E-02  0.8742E-03  0.2620E-02
      4.013  0.2563E-01  0.1153E+00  0.7299E-01  0.3959E-01  0.1290E-02  0.1286E-02  0.4383E-02  0.8679E-03  0.2345E-02
      4.120  0.2572E-01  0.1193E+00  0.6674E-01  0.4305E-01  0.1212E-02  0.1419E-02  0.4123E-02  0.7818E-03  0.2692E-02
      4.227  0.2843E-01  0.9733E-01  0.6276E-01  0.5618E-01  0.8313E-03  0.1303E-02  0.4164E-02  0.8562E-03  0.3559E-02
      4.334  0.3188E-01  0.8631E-01  0.6146E-01  0.6996E-01  0.7520E-03  0.1117E-02  0.4532E-02  0.1061E-02  0.4594E-02