    2    2   60    1
  0.1569237E+02  0.2482000E-09  0.4830000E-09  0.2618000E-09  0.5000000E-15
  1.000000000000000E-004
  CAR 
 unknown system                          
   18  450   13
 
  0.3742002E-15  0.3742002E-15  0.3742002E-15  0.3631082E-03
   1      -10.367344
   2      -10.278835
   3       -9.962445
   4       -9.911157
   5       -9.835950
   6       -9.183525
   7       -2.942704
   8       -0.932533
   9        9.441204
  10       10.227626
  11       12.259594
  12       13.322279
  13       14.814134
 
  0.5555556E-01  0.3742002E-15  0.3742002E-15  0.7262164E-03
   1      -10.354426
   2      -10.271146
   3       -9.959342
   4       -9.912721
   5       -9.839011
   6       -9.124335
   7       -2.881687
   8       -0.871562
   9        9.392770
  10        9.495288
  11       12.315123
  12       13.431626
  13       15.157367
 
  0.1111111E+00  0.3742002E-15  0.3742002E-15  0.7262164E-03
   1      -10.327445
   2      -10.245061
   3       -9.958675
   4       -9.931857
   5       -9.852184
   6       -8.946462
   7       -2.697878
   8       -0.690583
   9        7.755529
  10        9.651907
  11       12.474380
  12       13.368405
  13       13.978697
 
  0.1666667E+00  0.3742002E-15  0.3742002E-15  0.7262164E-03
   1      -10.303465
   2      -10.204611
   3       -9.966284
   4       -9.956642
   5       -9.874974
   6       -8.650665
   7       -2.389202
   8       -0.395510
   9        5.980326
  10        9.906599
  11       11.786040
  12       12.698126
  13       14.066075
 
  0.2222222E+00  0.3742002E-15  0.3742002E-15  0.7262164E-03
   1      -10.283577
   2      -10.146656
   3      -10.002090
   4       -9.951805
   5       -9.906802
   6       -8.240174
   7       -1.953217
   8        0.003119
   9        4.246357
  10       10.002246
  11       10.246962
  12       12.714470
  13       14.062183
 
  0.2777778E+00  0.3742002E-15  0.3742002E-15  0.7262164E-03
   1      -10.265712
   2      -10.071496
   3      -10.036530
   4       -9.948945
   5       -9.932554
   6       -7.724064
   7       -1.389170
   8        0.486958
   9        2.620301
  10        8.282048
  11       10.649701
  12       11.700936
  13       13.972978
 
  0.3333333E+00  0.3742002E-15  0.3742002E-15  0.7262164E-03
   1      -10.254676
   2      -10.074628
   3      -10.008460
   4       -9.958160
   5       -9.946012
   6       -7.122957
   7       -0.706803
   8        1.023766
   9        1.154891
  10        6.664120
  11       10.407481
  12       11.081746
  13       14.401886
 
  0.3888889E+00  0.3742002E-15  0.3742002E-15  0.7262164E-03
   1      -10.245488
   2      -10.101880
   3       -9.979462
   4       -9.954477
   5       -9.942993
   6       -6.483462
   7       -0.289359
   8        0.284155
   9        1.554899
  10        5.176153
  11        9.298132
  12       11.487530
  13       14.881961
 
  0.4444444E+00  0.3742002E-15  0.3742002E-15  0.7262164E-03
   1      -10.239724
   2      -10.118352
   3       -9.994982
   4       -9.942151
   5       -9.919074
   6       -5.920391
   7       -1.128667
   8        1.078040
   9        1.975990
  10        3.871634
  11        8.524225
  12       11.788651
  13       15.265208
 
  0.5000000E+00  0.3742002E-15  0.3742002E-15  0.3631082E-03
   1      -10.238656
   2      -10.128831
   3      -10.000685
   4       -9.942193
   5       -9.908061
   6       -5.672549
   7       -1.497555
   8        1.681141
   9        2.142872
  10        3.126117
  11        8.238866
  12       11.901981
  13       15.415256
 
  0.3742002E-15  0.1111111E+00  0.3742002E-15  0.7262164E-03
   1      -10.365520
   2      -10.266896
   3       -9.959307
   4       -9.906738
   5       -9.834608
   6       -9.160527
   7       -3.388113
   8       -0.318339
   9        9.447347
  10       10.250063
  11       11.373145
  12       13.370309
  13       14.977394
 
  0.5555556E-01  0.1111111E+00  0.3742002E-15  0.1452433E-02
   1      -10.355661
   2      -10.260516
   3       -9.959652
   4       -9.915459
   5       -9.840452
   6       -9.101031
   7       -3.326698
   8       -0.257943
   9        9.412199
  10        9.502736
  11       11.437434
  12       13.488749
  13       15.153835
 
  0.1111111E+00  0.1111111E+00  0.3742002E-15  0.1452433E-02
   1      -10.330313
   2      -10.240356
   3       -9.958570
   4       -9.934276
   5       -9.853105
   6       -8.922649
   7       -3.141955
   8       -0.078307
   9        7.779017
  10        9.657897
  11       11.587074
  12       13.344455
  13       13.911302
 
  0.1666667E+00  0.1111111E+00  0.3742002E-15  0.1452433E-02
   1      -10.303055
   2      -10.199170
   3       -9.966154
   4       -9.956211
   5       -9.874741
   6       -8.626292
   7       -2.832764
   8        0.215746
   9        6.006546
  10        9.912549
  11       11.375036
  12       12.120367
  13       14.099723
 
  0.2222222E+00  0.1111111E+00  0.3742002E-15  0.1452433E-02
   1      -10.282709
   2      -10.139967
   3      -10.002717
   4       -9.953815
   5       -9.904858
   6       -8.215815
   7       -2.398242
   8        0.614638
   9        4.274550
  10        9.733613
  11       10.251892
  12       12.278697
  13       14.009450
 
  0.2777778E+00  0.1111111E+00  0.3742002E-15  0.1452433E-02
   1      -10.265858
   2      -10.068112
   3      -10.039608
   4       -9.950106
   5       -9.932748
   6       -7.700515
   7       -1.839849
   8        1.101024
   9        2.650175
  10        8.037272
  11       10.654704
  12       11.994547
  13       13.214421
 
  0.3333333E+00  0.1111111E+00  0.3742002E-15  0.1452433E-02
   1      -10.253325
   2      -10.073649
   3      -10.003338
   4       -9.956831
   5       -9.945135
   6       -7.100940
   7       -1.167965
   8        1.167699
   9        1.659450
  10        6.445678
  11       10.784956
  12       11.086870
  13       13.570262
 
  0.3888889E+00  0.1111111E+00  0.3742002E-15  0.1452433E-02
   1      -10.244226
   2      -10.101890
   3       -9.979140
   4       -9.950139
   5       -9.942700
   6       -6.463996
   7       -0.491415
   8        0.004604
   9        2.202923
  10        5.002780
  11        9.666382
  12       11.491418
  13       14.079402
 
  0.4444444E+00  0.1111111E+00  0.3742002E-15  0.1452433E-02
   1      -10.240313
   2      -10.122824
   3       -9.994598
   4       -9.941881
   5       -9.916171
   6       -5.904401
   7       -1.091101
   8        0.454449
   9        2.660753
  10        3.791074
  11        8.873334
  12       11.791824
  13       14.506952
 
  0.5000000E+00  0.1111111E+00  0.3742002E-15  0.7262164E-03
   1      -10.238746
   2      -10.126910
   3       -9.999758
   4       -9.941419
   5       -9.904729
   6       -5.658653
   7       -1.454937
   8        0.880931
   9        2.935908
  10        3.122151
  11        8.578138
  12       11.904749
  13       14.680748
 
  0.3742002E-15  0.2222222E+00  0.3742002E-15  0.7262164E-03
   1      -10.362903
   2      -10.247266
   3       -9.960529
   4       -9.907544
   5       -9.836545
   6       -9.097566
   7       -4.103256
   8        0.909130
   9        9.357587
  10        9.771641
  11       10.308968
  12       13.510321
  13       15.050912
 
  0.5555556E-01  0.2222222E+00  0.3742002E-15  0.1452433E-02
   1      -10.354249
   2      -10.240916
   3       -9.958868
   4       -9.914849
   5       -9.839937
   6       -9.037297
   7       -4.041266
   8        0.968637
   9        9.352678
  10        9.514559
  11        9.860387
  12       13.640632
  13       14.840570
 
  0.1111111E+00  0.2222222E+00  0.3742002E-15  0.1452433E-02
   1      -10.329377
   2      -10.219658
   3       -9.957042
   4       -9.934223
   5       -9.852998
   6       -8.857325
   7       -3.854945
   8        1.145690
   9        7.837658
  10        9.581849
  11        9.999814
  12       13.019642
  13       13.946633
 
  0.1666667E+00  0.2222222E+00  0.3742002E-15  0.1452433E-02
   1      -10.302181
   2      -10.179979
   3       -9.965299
   4       -9.955277
   5       -9.873762
   6       -8.560021
   7       -3.543532
   8        1.435276
   9        6.075689
  10        9.819077
  11       10.174656
  12       11.314295
  13       14.239586
 
  0.2222222E+00  0.2222222E+00  0.3742002E-15  0.1452433E-02
   1      -10.280122
   2      -10.123582
   3      -10.004493
   4       -9.953243
   5       -9.903685
   6       -8.150083
   7       -3.106857
   8        1.827170
   9        4.349357
  10        9.155825
  11       10.229274
  12       10.856670
  13       14.572237
 
  0.2777778E+00  0.2222222E+00  0.3742002E-15  0.1452433E-02
   1      -10.263797
   2      -10.058362
   3      -10.038345
   4       -9.949974
   5       -9.932517
   6       -7.637128
   7       -2.547235
   8        2.298491
   9        2.730838
  10        7.541680
  11       10.626021
  12       11.254696
  13       13.290371
 
  0.3333333E+00  0.2222222E+00  0.3742002E-15  0.1452433E-02
   1      -10.252489
   2      -10.078160
   3       -9.993232
   4       -9.958870
   5       -9.946799
   6       -7.042055
   7       -1.874380
   8        1.256214
   9        2.812050
  10        6.022085
  11       11.059418
  12       11.513553
  13       12.181548
 
  0.3888889E+00  0.2222222E+00  0.3742002E-15  0.1452433E-02
   1      -10.244256
   2      -10.106887
   3       -9.980965
   4       -9.945225
   5       -9.939420
   6       -6.412213
   7       -1.124974
   8        0.009031
   9        3.191690
  10        4.794315
  11       10.588517
  12       11.478685
  13       12.494094
 
  0.4444444E+00  0.2222222E+00  0.3742002E-15  0.1452433E-02
   1      -10.238622
   2      -10.121910
   3       -9.993906
   4       -9.940860
   5       -9.906585
   6       -5.861999
   7       -0.992884
   8       -0.292356
   9        2.906862
  10        4.389791
  11        9.779405
  12       11.780718
  13       12.954726
 
  0.5000000E+00  0.2222222E+00  0.3742002E-15  0.7262164E-03
   1      -10.236246
   2      -10.128363
   3       -9.998046
   4       -9.939902
   5       -9.895519
   6       -5.621999
   7       -1.338235
   8        0.090824
   9        2.500085
  10        4.450984
  11        9.469554
  12       11.894628
  13       13.153680
 
  0.3742002E-15  0.3333333E+00  0.3742002E-15  0.7262164E-03
   1      -10.362187
   2      -10.222701
   3       -9.962664
   4       -9.907656
   5       -9.836842
   6       -9.015731
   7       -4.682351
   8        2.359828
   9        7.755257
  10        9.556745
  11       10.379608
  12       13.739406
  13       14.858758
 
  0.5555556E-01  0.3333333E+00  0.3742002E-15  0.1452433E-02
   1      -10.352774
   2      -10.217859
   3       -9.961902
   4       -9.915023
   5       -9.841356
   6       -8.954770
   7       -4.619874
   8        2.417908
   9        7.807123
  10        9.570541
  11        9.610123
  12       13.887703
  13       14.468924
 
  0.1111111E+00  0.3333333E+00  0.3742002E-15  0.1452433E-02
   1      -10.330163
   2      -10.198627
   3       -9.959160
   4       -9.936803
   5       -9.853294
   6       -8.773445
   7       -4.432064
   8        2.590329
   9        7.772344
  10        8.160495
  11        9.765587
  12       12.617022
  13       14.169157
 
  0.1666667E+00  0.3333333E+00  0.3742002E-15  0.1452433E-02
   1      -10.302322
   2      -10.160861
   3       -9.970046
   4       -9.953614
   5       -9.874775
   6       -8.475598
   7       -4.118039
   8        2.870625
   9        6.156143
  10        8.274210
  11       10.014438
  12       10.788891
  13       14.490726
 
  0.2222222E+00  0.3333333E+00  0.3742002E-15  0.1452433E-02
   1      -10.279080
   2      -10.106815
   3      -10.006107
   4       -9.950544
   5       -9.903050
   6       -8.066894
   7       -3.677440
   8        3.243453
   9        4.442498
  10        8.329594
  11        9.326042
  12       10.364371
  13       14.904461
 
  0.2777778E+00  0.3333333E+00  0.3742002E-15  0.1452433E-02
   1      -10.262955
   2      -10.049554
   3      -10.036495
   4       -9.947610
   5       -9.930861
   6       -7.557477
   7       -3.112566
   8        2.828404
   9        3.667951
  10        7.105535
  11        9.407022
  12       10.764321
  13       14.483984
 
  0.3333333E+00  0.3333333E+00  0.3742002E-15  0.1452433E-02
   1      -10.249977
   2      -10.082558
   3       -9.977195
   4       -9.959104
   5       -9.945343
   6       -6.968586
   7       -2.432262
   8        1.364998
   9        3.969640
  10        5.825863
  11        9.935553
  12       11.195658
  13       13.112427
 
  0.3888889E+00  0.3333333E+00  0.3742002E-15  0.1452433E-02
   1      -10.241843
   2      -10.109724
   3       -9.981103
   4       -9.943167
   5       -9.926437
   6       -6.348257
   7       -1.664718
   8        0.115074
   9        3.506241
  10        5.457899
  11       10.513879
  12       11.592298
  13       11.951747
 
  0.4444444E+00  0.3333333E+00  0.3742002E-15  0.1452433E-02
   1      -10.235376
   2      -10.125664
   3       -9.994848
   4       -9.940380
   5       -9.893958
   6       -5.810233
   7       -0.957851
   8       -0.744446
   9        2.548772
  10        5.743024
  11       10.916806
  12       11.169172
  13       11.935060
 
  0.5000000E+00  0.3333333E+00  0.3742002E-15  0.7262164E-03
   1      -10.232912
   2      -10.128881
   3       -9.997578
   4       -9.937266
   5       -9.882046
   6       -5.577401
   7       -1.185181
   8       -0.470581
   9        2.047897
  10        5.908197
  11       10.712999
  12       11.258650
  13       12.058374
 
  0.3742002E-15  0.4444444E+00  0.3742002E-15  0.7262164E-03
   1      -10.362120
   2      -10.208017
   3       -9.964389
   4       -9.906076
   5       -9.836867
   6       -8.955223
   7       -5.002863
   8        3.867227
   9        6.042605
  10        9.570876
  11       10.428274
  12       14.036604
  13       14.501063
 
  0.5555556E-01  0.4444444E+00  0.3742002E-15  0.1452433E-02
   1      -10.353369
   2      -10.202225
   3       -9.963647
   4       -9.914614
   5       -9.841614
   6       -8.893859
   7       -4.940098
   8        3.921741
   9        6.103026
  10        9.614822
  11        9.627279
  12       14.189659
  13       14.286343
 
  0.1111111E+00  0.4444444E+00  0.3742002E-15  0.1452433E-02
   1      -10.330855
   2      -10.183758
   3       -9.961849
   4       -9.938675
   5       -9.854599
   6       -8.711897
   7       -4.751338
   8        4.082345
   9        6.276508
  10        8.019574
  11        9.779578
  12       12.373013
  13       14.509956
 
  0.1666667E+00  0.4444444E+00  0.3742002E-15  0.1452433E-02
   1      -10.303232
   2      -10.147797
   3       -9.973602
   4       -9.954484
   5       -9.875519
   6       -8.414068
   7       -4.435484
   8        4.337665
   9        6.148569
  10        6.693535
  11       10.031435
  12       10.506121
  13       14.840412
 
  0.2222222E+00  0.4444444E+00  0.3742002E-15  0.1452433E-02
   1      -10.279368
   2      -10.094993
   3      -10.007949
   4       -9.950547
   5       -9.901838
   6       -8.006651
   7       -3.991972
   8        4.491853
   9        4.669865
  10        7.001161
  11        8.785200
  12       10.369110
  13       15.267594
 
  0.2777778E+00  0.4444444E+00  0.3742002E-15  0.1452433E-02
   1      -10.261801
   2      -10.046948
   3      -10.029648
   4       -9.946505
   5       -9.929476
   6       -7.500197
   7       -3.422770
   8        2.899869
   9        4.899714
  10        6.991439
  11        7.829560
  12       10.768121
  13       15.726394
 
  0.3333333E+00  0.4444444E+00  0.3742002E-15  0.1452433E-02
   1      -10.250083
   2      -10.082374
   3       -9.969577
   4       -9.959119
   5       -9.942600
   6       -6.916209
   7       -2.736341
   8        1.443499
   9        4.492349
  10        6.505724
  11        8.282813
  12       11.195199
  13       14.506597
 
  0.3888889E+00  0.4444444E+00  0.3742002E-15  0.1452433E-02
   1      -10.239915
   2      -10.108579
   3       -9.979778
   4       -9.938619
   5       -9.920759
   6       -6.303082
   7       -1.958954
   8        0.199537
   9        3.375566
  10        6.778249
  11        8.901492
  12       11.596457
  13       13.341964
 
  0.4444444E+00  0.4444444E+00  0.3742002E-15  0.1452433E-02
   1      -10.235657
   2      -10.128281
   3       -9.993999
   4       -9.938019
   5       -9.886473
   6       -5.774063
   7       -1.182870
   8       -0.709682
   9        2.287971
  10        7.173343
  11        9.453990
  12       11.896378
  13       12.491840
 
  0.5000000E+00  0.4444444E+00  0.3742002E-15  0.7262164E-03
   1      -10.233170
   2      -10.135215
   3      -10.001069
   4       -9.938090
   5       -9.875449
   6       -5.546436
   7       -1.068810
   8       -0.763911
   9        1.760970
  10        7.351595
  11        9.697803
  12       12.013641
  13       12.159570
 
  0.3742002E-15  0.3742002E-15  0.5882353E-01  0.7262164E-03
   1      -10.358280
   2      -10.268032
   3       -9.967383
   4       -9.906826
   5       -9.838663
   6       -9.121768
   7       -2.879920
   8       -0.861022
   9        8.558856
  10       10.284706
  11       12.225818
  12       13.658272
  13       14.741165
 
  0.5555556E-01  0.3742002E-15  0.5882353E-01  0.1452433E-02
   1      -10.346077
   2      -10.260863
   3       -9.967310
   4       -9.912529
   5       -9.844975
   6       -9.062412
   7       -2.818837
   8       -0.800127
   9        8.600301
  10        9.472097
  11       12.281544
  12       13.717954
  13       15.210455
 
  0.1111111E+00  0.3742002E-15  0.5882353E-01  0.1452433E-02
   1      -10.320188
   2      -10.240911
   3       -9.965309
   4       -9.933214
   5       -9.858317
   6       -8.884348
   7       -2.634812
   8       -0.619415
   9        7.792441
  10        8.808304
  11       12.441501
  12       13.510405
  13       14.172946
 
  0.1666667E+00  0.3742002E-15  0.5882353E-01  0.1452433E-02
   1      -10.291815
   2      -10.200459
   3       -9.967146
   4       -9.961359
   5       -9.882448
   6       -8.588165
   7       -2.325837
   8       -0.324558
   9        6.034154
  10        9.052193
  11       11.865883
  12       12.669337
  13       14.320390
 
  0.2222222E+00  0.3742002E-15  0.5882353E-01  0.1452433E-02
   1      -10.269183
   2      -10.141135
   3      -10.001650
   4       -9.959559
   5       -9.910250
   6       -8.177458
   7       -1.889530
   8        0.073715
   9        4.304211
  10        9.368169
  11       10.115614
  12       12.719102
  13       14.085770
 
  0.2777778E+00  0.3742002E-15  0.5882353E-01  0.1452433E-02
   1      -10.251600
   2      -10.069334
   3      -10.035535
   4       -9.955078
   5       -9.938441
   6       -7.661351
   7       -1.325164
   8        0.557262
   9        2.679682
  10        8.327370
  11        9.857796
  12       11.755691
  13       13.946548
 
  0.3333333E+00  0.3742002E-15  0.5882353E-01  0.1452433E-02
   1      -10.241281
   2      -10.073194
   3      -10.005304
   4       -9.965587
   5       -9.951915
   6       -7.060258
   7       -0.642299
   8        1.093817
   9        1.214795
  10        6.721843
  11       10.305228
  12       10.469168
  13       14.368284
 
  0.3888889E+00  0.3742002E-15  0.5882353E-01  0.1452433E-02
   1      -10.232898
   2      -10.101284
   3       -9.988107
   4       -9.950459
   5       -9.949841
   6       -6.420862
   7       -0.224198
   8        0.343884
   9        1.624773
  10        5.237230
  11        9.361325
  12       10.742821
  13       14.846444
 
  0.4444444E+00  0.3742002E-15  0.5882353E-01  0.1452433E-02
   1      -10.226402
   2      -10.119150
   3      -10.002760
   4       -9.948173
   5       -9.915404
   6       -5.857915
   7       -1.065881
   8        1.139906
   9        2.045776
  10        3.934501
  11        8.587792
  12       11.076505
  13       15.228687
 
  0.5000000E+00  0.3742002E-15  0.5882353E-01  0.7262164E-03
   1      -10.224222
   2      -10.127281
   3      -10.007431
   4       -9.947599
   5       -9.904125
   6       -5.610146
   7       -1.434775
   8        1.742131
   9        2.212716
  10        3.190467
  11        8.302564
  12       11.204390
  13       15.378555
 
  0.3742002E-15  0.1111111E+00  0.5882353E-01  0.1452433E-02
   1      -10.357350
   2      -10.257435
   3       -9.966912
   4       -9.906996
   5       -9.839489
   6       -9.097927
   7       -3.322933
   8       -0.249883
   9        8.574332
  10       10.306870
  11       11.360934
  12       13.654633
  13       14.847804
 
  0.5555556E-01  0.1111111E+00  0.5882353E-01  0.2904866E-02
   1      -10.346774
   2      -10.253145
   3       -9.966715
   4       -9.913781
   5       -9.844605
   6       -9.038409
   7       -3.261463
   8       -0.189551
   9        8.615223
  10        9.493721
  11       11.425560
  12       13.717270
  13       15.204985
 
  0.1111111E+00  0.1111111E+00  0.5882353E-01  0.2904866E-02
   1      -10.319412
   2      -10.233565
   3       -9.966932
   4       -9.934620
   5       -9.859354
   6       -8.859793
   7       -3.076576
   8       -0.010011
   9        7.814736
  10        8.825705
  11       11.576127
  12       13.444467
  13       14.080656
 
  0.1666667E+00  0.1111111E+00  0.5882353E-01  0.2904866E-02
   1      -10.290520
   2      -10.195459
   3       -9.968293
   4       -9.958661
   5       -9.881429
   6       -8.563315
   7       -2.767178
   8        0.283867
   9        6.060024
  10        9.068749
  11       11.419172
  12       12.144298
  13       14.288002
 
  0.2222222E+00  0.1111111E+00  0.5882353E-01  0.2904866E-02
   1      -10.268848
   2      -10.136308
   3      -10.001425
   4       -9.959746
   5       -9.910296
   6       -8.152766
   7       -2.332430
   8        0.682567
   9        4.332032
  10        9.370460
  11        9.854416
  12       12.278519
  13       14.074689
 
  0.2777778E+00  0.1111111E+00  0.5882353E-01  0.2904866E-02
   1      -10.251696
   2      -10.065997
   3      -10.038406
   4       -9.955848
   5       -9.938477
   6       -7.637493
   7       -1.773868
   8        1.168755
   9        2.709326
  10        8.088757
  11        9.862890
  12       12.040425
  13       13.225083
 
  0.3333333E+00  0.1111111E+00  0.5882353E-01  0.2904866E-02
   1      -10.240228
   2      -10.073734
   3      -10.000578
   4       -9.966174
   5       -9.952749
   6       -7.037969
   7       -1.101757
   8        1.228296
   9        1.726211
  10        6.505407
  11       10.310059
  12       10.851340
  13       13.564285
 
  0.3888889E+00  0.1111111E+00  0.5882353E-01  0.2904866E-02
   1      -10.231628
   2      -10.100703
   3       -9.988179
   4       -9.950554
   5       -9.945386
   6       -6.401097
   7       -0.424180
   8        0.064258
   9        2.269913
  10        5.065090
  11        9.726608
  12       10.754826
  13       14.071509
 
  0.4444444E+00  0.1111111E+00  0.5882353E-01  0.2904866E-02
   1      -10.226204
   2      -10.120937
   3      -10.002994
   4       -9.948198
   5       -9.912226
   6       -5.841577
   7       -1.028487
   8        0.518941
   9        2.727400
  10        3.854794
  11        8.935455
  12       11.086039
  13       14.498951
 
  0.5000000E+00  0.1111111E+00  0.5882353E-01  0.1452433E-02
   1      -10.224702
   2      -10.127647
   3      -10.006857
   4       -9.947166
   5       -9.901066
   6       -5.595875
   7       -1.392555
   8        0.945684
   9        3.001251
  10        3.187380
  11        8.640512
  12       11.213191
  13       14.672887
 
  0.3742002E-15  0.2222222E+00  0.5882353E-01  0.1452433E-02
   1      -10.355490
   2      -10.239440
   3       -9.969712
   4       -9.906107
   5       -9.839789
   6       -9.032878
   7       -4.036012
   8        0.973605
   9        8.594523
  10        9.703877
  11       10.365141
  12       13.539204
  13       14.866150
 
  0.5555556E-01  0.2222222E+00  0.5882353E-01  0.2904866E-02
   1      -10.346244
   2      -10.234130
   3       -9.969796
   4       -9.915201
   5       -9.845478
   6       -8.972723
   7       -3.973991
   8        1.033069
   9        8.633466
  10        9.507628
  11        9.822967
  12       13.594282
  13       14.919955
 
  0.1111111E+00  0.2222222E+00  0.5882353E-01  0.2904866E-02
   1      -10.319771
   2      -10.215275
   3       -9.967545
   4       -9.934010
   5       -9.859151
   6       -8.792982
   7       -3.787575
   8        1.210046
   9        7.868488
  10        8.855853
  11        9.941287
  12       13.061625
  13       13.907468
 
  0.1666667E+00  0.2222222E+00  0.5882353E-01  0.2904866E-02
   1      -10.290347
   2      -10.177664
   3       -9.970671
   4       -9.959196
   5       -9.882274
   6       -8.495884
   7       -3.476054
   8        1.499550
   9        6.127655
  10        9.095818
  11       10.102325
  12       11.382313
  13       14.167698
 
  0.2222222E+00  0.2222222E+00  0.5882353E-01  0.2904866E-02
   1      -10.266637
   2      -10.121717
   3      -10.003837
   4       -9.958648
   5       -9.909550
   6       -8.086119
   7       -3.039278
   8        1.891347
   9        4.406072
  10        9.177687
  11        9.488867
  12       10.859648
  13       14.543838
 
  0.2777778E+00  0.2222222E+00  0.5882353E-01  0.2904866E-02
   1      -10.250685
   2      -10.057752
   3      -10.036941
   4       -9.956599
   5       -9.938309
   6       -7.573327
   7       -2.479673
   8        2.362746
   9        2.789278
  10        7.600880
  11        9.875136
  12       11.249469
  13       13.352754
 
  0.3333333E+00  0.2222222E+00  0.5882353E-01  0.2904866E-02
   1      -10.237908
   2      -10.076006
   3       -9.989625
   4       -9.965489
   5       -9.951596
   6       -6.978329
   7       -1.806887
   8        1.315983
   9        2.875937
  10        6.085138
  11       10.328022
  12       11.536728
  13       12.218495
 
  0.3888889E+00  0.2222222E+00  0.5882353E-01  0.2904866E-02
   1      -10.230094
   2      -10.105040
   3       -9.988322
   4       -9.950356
   5       -9.936245
   6       -6.348528
   7       -1.057554
   8        0.068926
   9        3.256309
  10        4.858315
  11       10.615776
  12       10.802426
  13       12.503172
 
  0.4444444E+00  0.2222222E+00  0.5882353E-01  0.2904866E-02
   1      -10.225195
   2      -10.122326
   3      -10.002094
   4       -9.948032
   5       -9.903342
   6       -5.798277
   7       -0.930724
   8       -0.227693
   9        2.973559
  10        4.452672
  11        9.837367
  12       11.102674
  13       12.966426
 
  0.5000000E+00  0.2222222E+00  0.5882353E-01  0.1452433E-02
   1      -10.223700
   2      -10.127054
   3      -10.007018
   4       -9.946705
   5       -9.892066
   6       -5.558214
   7       -1.276893
   8        0.155774
   9        2.567727
  10        4.513646
  11        9.528741
  12       11.227861
  13       13.167219
 
  0.3742002E-15  0.3333333E+00  0.5882353E-01  0.1452433E-02
   1      -10.354105
   2      -10.214768
   3       -9.972573
   4       -9.906995
   5       -9.840698
   6       -8.948817
   7       -4.614095
   8        2.419628
   9        7.760895
  10        8.767342
  11       10.434962
  12       13.356250
  13       14.819812
 
  0.5555556E-01  0.3333333E+00  0.5882353E-01  0.2904866E-02
   1      -10.344880
   2      -10.210626
   3       -9.971272
   4       -9.914251
   5       -9.845111
   6       -8.888124
   7       -4.551583
   8        2.477689
   9        7.811721
  10        8.808675
  11        9.651225
  12       13.398436
  13       14.577738
 
  0.1111111E+00  0.3333333E+00  0.5882353E-01  0.2904866E-02
   1      -10.320727
   2      -10.193301
   3       -9.969677
   4       -9.936194
   5       -9.859960
   6       -8.707393
   7       -4.363694
   8        2.650039
   9        7.780732
  10        8.198096
  11        9.014073
  12       12.642306
  13       13.713282
 
  0.1666667E+00  0.3333333E+00  0.5882353E-01  0.2904866E-02
   1      -10.289731
   2      -10.158395
   3       -9.972003
   4       -9.958564
   5       -9.881144
   6       -8.410134
   7       -4.049584
   8        2.930242
   9        6.206087
  10        8.290355
  11        9.250473
  12       10.852089
  13       13.989087
 
  0.2222222E+00  0.3333333E+00  0.5882353E-01  0.2904866E-02
   1      -10.265354
   2      -10.104228
   3      -10.005560
   4       -9.959186
   5       -9.908139
   6       -8.001881
   7       -3.609007
   8        3.302938
   9        4.498329
  10        8.372546
  11        9.273450
  12        9.701492
  13       14.407990
 
  0.2777778E+00  0.3333333E+00  0.5882353E-01  0.2904866E-02
   1      -10.249656
   2      -10.049800
   3      -10.034951
   4       -9.955783
   5       -9.938552
   6       -7.492772
   7       -3.044262
   8        2.886199
   9        3.727581
  10        7.168814
  11        9.385999
  12       10.066646
  13       14.510288
 
  0.3333333E+00  0.3333333E+00  0.5882353E-01  0.2904866E-02
   1      -10.236718
   2      -10.080223
   3       -9.976331
   4       -9.964939
   5       -9.951463
   6       -6.903994
   7       -2.364307
   8        1.423919
   9        4.030535
  10        5.890268
  11        9.904009
  12       10.530703
  13       13.169628
 
  0.3888889E+00  0.3333333E+00  0.5882353E-01  0.2904866E-02
   1      -10.227956
   2      -10.107245
   3       -9.987857
   4       -9.949290
   5       -9.924087
   6       -6.283621
   7       -1.597369
   8        0.174321
   9        3.572245
  10        5.518448
  11       10.453161
  12       10.994993
  13       12.002207
 
  0.4444444E+00  0.3333333E+00  0.5882353E-01  0.2904866E-02
   1      -10.222215
   2      -10.123751
   3      -10.001963
   4       -9.946225
   5       -9.890523
   6       -5.745392
   7       -0.892655
   8       -0.684140