Automatically generated mesh
     450
Reciprocal lattice
    0.00000000000000    0.00000000000000    0.00000000000000             1
    0.05555555555556    0.00000000000000    0.00000000000000             2
    0.11111111111111    0.00000000000000    0.00000000000000             2
    0.16666666666667    0.00000000000000    0.00000000000000             2
    0.22222222222222    0.00000000000000    0.00000000000000             2
    0.27777777777778    0.00000000000000    0.00000000000000             2
    0.33333333333333    0.00000000000000    0.00000000000000             2
    0.38888888888889    0.00000000000000    0.00000000000000             2
    0.44444444444445    0.00000000000000    0.00000000000000             2
    0.50000000000000    0.00000000000000    0.00000000000000             1
    0.00000000000000    0.11111111111111    0.00000000000000             2
    0.05555555555556    0.11111111111111    0.00000000000000             4
    0.11111111111111    0.11111111111111    0.00000000000000             4
    0.16666666666667    0.11111111111111    0.00000000000000             4
    0.22222222222222    0.11111111111111    0.00000000000000             4
    0.27777777777778    0.11111111111111    0.00000000000000             4
    0.33333333333333    0.11111111111111    0.00000000000000             4
    0.38888888888889    0.11111111111111    0.00000000000000             4
    0.44444444444445    0.11111111111111    0.00000000000000             4
    0.50000000000000    0.11111111111111    0.00000000000000             2
    0.00000000000000    0.22222222222222    0.00000000000000             2
    0.05555555555556    0.22222222222222    0.00000000000000             4
    0.11111111111111    0.22222222222222    0.00000000000000             4
    0.16666666666667    0.22222222222222    0.00000000000000             4
    0.22222222222222    0.22222222222222    0.00000000000000             4
    0.27777777777778    0.22222222222222    0.00000000000000             4
    0.33333333333333    0.22222222222222    0.00000000000000             4
    0.38888888888889    0.22222222222222    0.00000000000000             4
    0.44444444444445    0.22222222222222    0.00000000000000             4
    0.50000000000000    0.22222222222222    0.00000000000000             2
    0.00000000000000    0.33333333333333    0.00000000000000             2
    0.05555555555556    0.33333333333333    0.00000000000000             4
    0.11111111111111    0.33333333333333    0.00000000000000             4
    0.16666666666667    0.33333333333333    0.00000000000000             4
    0.22222222222222    0.33333333333333    0.00000000000000             4
    0.27777777777778    0.33333333333333    0.00000000000000             4
    0.33333333333333    0.33333333333333    0.00000000000000             4
    0.38888888888889    0.33333333333333    0.00000000000000             4
    0.44444444444445    0.33333333333333    0.00000000000000             4
    0.50000000000000    0.33333333333333    0.00000000000000             2
    0.00000000000000    0.44444444444445    0.00000000000000             2
    0.05555555555556    0.44444444444445    0.00000000000000             4
    0.11111111111111    0.44444444444445    0.00000000000000             4
    0.16666666666667    0.44444444444445    0.00000000000000             4
    0.22222222222222    0.44444444444445    0.00000000000000             4
    0.27777777777778    0.44444444444445    0.00000000000000             4
    0.33333333333333    0.44444444444445    0.00000000000000             4
    0.38888888888889    0.44444444444445    0.00000000000000             4
    0.44444444444445    0.44444444444445    0.00000000000000             4
    0.50000000000000    0.44444444444445    0.00000000000000             2
    0.00000000000000    0.00000000000000    0.05882352941176             2
    0.05555555555556    0.00000000000000    0.05882352941176             4
    0.11111111111111    0.00000000000000    0.05882352941176             4
    0.16666666666667    0.00000000000000    0.05882352941176             4
    0.22222222222222    0.00000000000000    0.05882352941176             4
    0.27777777777778    0.00000000000000    0.05882352941176             4
    0.33333333333333    0.00000000000000    0.05882352941176             4
    0.38888888888889    0.00000000000000    0.05882352941176             4
    0.44444444444445    0.00000000000000    0.05882352941176             4
    0.50000000000000    0.00000000000000    0.05882352941176             2
    0.00000000000000    0.11111111111111    0.05882352941176             4
    0.05555555555556    0.11111111111111    0.05882352941176             8
    0.11111111111111    0.11111111111111    0.05882352941176             8
    0.16666666666667    0.11111111111111    0.05882352941176             8
    0.22222222222222    0.11111111111111    0.05882352941176             8
    0.27777777777778    0.11111111111111    0.05882352941176             8
    0.33333333333333    0.11111111111111    0.05882352941176             8
    0.38888888888889    0.11111111111111    0.05882352941176             8
    0.44444444444445    0.11111111111111    0.05882352941176             8
    0.50000000000000    0.11111111111111    0.05882352941176             4
    0.00000000000000    0.22222222222222    0.05882352941176             4
    0.05555555555556    0.22222222222222    0.05882352941176             8
    0.11111111111111    0.22222222222222    0.05882352941176             8
    0.16666666666667    0.22222222222222    0.05882352941176             8
    0.22222222222222    0.22222222222222    0.05882352941176             8
    0.27777777777778    0.22222222222222    0.05882352941176             8
    0.33333333333333    0.22222222222222    0.05882352941176             8
    0.38888888888889    0.22222222222222    0.05882352941176             8
    0.44444444444445    0.22222222222222    0.05882352941176             8
    0.50000000000000    0.22222222222222    0.05882352941176             4
    0.00000000000000    0.33333333333333    0.05882352941176             4
    0.05555555555556    0.33333333333333    0.05882352941176             8
    0.11111111111111    0.33333333333333    0.05882352941176             8
    0.16666666666667    0.33333333333333    0.05882352941176             8
    0.22222222222222    0.33333333333333    0.05882352941176             8
    0.27777777777778    0.33333333333333    0.05882352941176             8
    0.33333333333333    0.33333333333333    0.05882352941176             8
    0.38888888888889    0.33333333333333    0.05882352941176             8
    0.44444444444445    0.33333333333333    0.05882352941176             8
    0.50000000000000    0.33333333333333    0.05882352941176             4
    0.00000000000000    0.44444444444445    0.05882352941176             4
    0.05555555555556    0.44444444444445    0.05882352941176             8
    0.11111111111111    0.44444444444445    0.05882352941176             8
    0.16666666666667    0.44444444444445    0.05882352941176             8
    0.22222222222222    0.44444444444445    0.05882352941176             8
    0.27777777777778    0.44444444444445    0.05882352941176             8
    0.33333333333333    0.44444444444445    0.05882352941176             8
    0.38888888888889    0.44444444444445    0.05882352941176             8
    0.44444444444445    0.44444444444445    0.05882352941176             8
    0.50000000000000    0.44444444444445    0.05882352941176             4
    0.00000000000000    0.00000000000000    0.11764705882353             2
    0.05555555555556    0.00000000000000    0.11764705882353             4
    0.11111111111111    0.00000000000000    0.11764705882353             4
    0.16666666666667    0.00000000000000    0.11764705882353             4
    0.22222222222222    0.00000000000000    0.11764705882353             4
    0.27777777777778    0.00000000000000    0.11764705882353             4
    0.33333333333333    0.00000000000000    0.11764705882353             4
    0.38888888888889    0.00000000000000    0.11764705882353             4
    0.44444444444445    0.00000000000000    0.11764705882353             4
    0.50000000000000    0.00000000000000    0.11764705882353             2
    0.00000000000000    0.11111111111111    0.11764705882353             4
    0.05555555555556    0.11111111111111    0.11764705882353             8
    0.11111111111111    0.11111111111111    0.11764705882353             8
    0.16666666666667    0.11111111111111    0.11764705882353             8
    0.22222222222222    0.11111111111111    0.11764705882353             8
    0.27777777777778    0.11111111111111    0.11764705882353             8
    0.33333333333333    0.11111111111111    0.11764705882353             8
    0.38888888888889    0.11111111111111    0.11764705882353             8
    0.44444444444445    0.11111111111111    0.11764705882353             8
    0.50000000000000    0.11111111111111    0.11764705882353             4
    0.00000000000000    0.22222222222222    0.11764705882353             4
    0.05555555555556    0.22222222222222    0.11764705882353             8
    0.11111111111111    0.22222222222222    0.11764705882353             8
    0.16666666666667    0.22222222222222    0.11764705882353             8
    0.22222222222222    0.22222222222222    0.11764705882353             8
    0.27777777777778    0.22222222222222    0.11764705882353             8
    0.33333333333333    0.22222222222222    0.11764705882353             8
    0.38888888888889    0.22222222222222    0.11764705882353             8
    0.44444444444445    0.22222222222222    0.11764705882353             8
    0.50000000000000    0.22222222222222    0.11764705882353             4
    0.00000000000000    0.33333333333333    0.11764705882353             4
    0.05555555555556    0.33333333333333    0.11764705882353             8
    0.11111111111111    0.33333333333333    0.11764705882353             8
    0.16666666666667    0.33333333333333    0.11764705882353             8
    0.22222222222222    0.33333333333333    0.11764705882353             8
    0.27777777777778    0.33333333333333    0.11764705882353             8
    0.33333333333333    0.33333333333333    0.11764705882353             8
    0.38888888888889    0.33333333333333    0.11764705882353             8
    0.44444444444445    0.33333333333333    0.11764705882353             8
    0.50000000000000    0.33333333333333    0.11764705882353             4
    0.00000000000000    0.44444444444445    0.11764705882353             4
    0.05555555555556    0.44444444444445    0.11764705882353             8
    0.11111111111111    0.44444444444445    0.11764705882353             8
    0.16666666666667    0.44444444444445    0.11764705882353             8
    0.22222222222222    0.44444444444445    0.11764705882353             8
    0.27777777777778    0.44444444444445    0.11764705882353             8
    0.33333333333333    0.44444444444445    0.11764705882353             8
    0.38888888888889    0.44444444444445    0.11764705882353             8
    0.44444444444445    0.44444444444445    0.11764705882353             8
    0.50000000000000    0.44444444444445    0.11764705882353             4
    0.00000000000000    0.00000000000000    0.17647058823529             2
    0.05555555555556    0.00000000000000    0.17647058823529             4
    0.11111111111111    0.00000000000000    0.17647058823529             4
    0.16666666666667    0.00000000000000    0.17647058823529             4
    0.22222222222222    0.00000000000000    0.17647058823529             4
    0.27777777777778    0.00000000000000    0.17647058823529             4
    0.33333333333333    0.00000000000000    0.17647058823529             4
    0.38888888888889    0.00000000000000    0.17647058823529             4
    0.44444444444445    0.00000000000000    0.17647058823529             4
    0.50000000000000    0.00000000000000    0.17647058823529             2
    0.00000000000000    0.11111111111111    0.17647058823529             4
    0.05555555555556    0.11111111111111    0.17647058823529             8
    0.11111111111111    0.11111111111111    0.17647058823529             8
    0.16666666666667    0.11111111111111    0.17647058823529             8
    0.22222222222222    0.11111111111111    0.17647058823529             8
    0.27777777777778    0.11111111111111    0.17647058823529             8
    0.33333333333333    0.11111111111111    0.17647058823529             8
    0.38888888888889    0.11111111111111    0.17647058823529             8
    0.44444444444445    0.11111111111111    0.17647058823529             8
    0.50000000000000    0.11111111111111    0.17647058823529             4
    0.00000000000000    0.22222222222222    0.17647058823529             4
    0.05555555555556    0.22222222222222    0.17647058823529             8
    0.11111111111111    0.22222222222222    0.17647058823529             8
    0.16666666666667    0.22222222222222    0.17647058823529             8
    0.22222222222222    0.22222222222222    0.17647058823529             8
    0.27777777777778    0.22222222222222    0.17647058823529             8
    0.33333333333333    0.22222222222222    0.17647058823529             8
    0.38888888888889    0.22222222222222    0.17647058823529             8
    0.44444444444445    0.22222222222222    0.17647058823529             8
    0.50000000000000    0.22222222222222    0.17647058823529             4
    0.00000000000000    0.33333333333333    0.17647058823529             4
    0.05555555555556    0.33333333333333    0.17647058823529             8
    0.11111111111111    0.33333333333333    0.17647058823529             8
    0.16666666666667    0.33333333333333    0.17647058823529             8
    0.22222222222222    0.33333333333333    0.17647058823529             8
    0.27777777777778    0.33333333333333    0.17647058823529             8
    0.33333333333333    0.33333333333333    0.17647058823529             8
    0.38888888888889    0.33333333333333    0.17647058823529             8
    0.44444444444445    0.33333333333333    0.17647058823529             8
    0.50000000000000    0.33333333333333    0.17647058823529             4
    0.00000000000000    0.44444444444445    0.17647058823529             4
    0.05555555555556    0.44444444444445    0.17647058823529             8
    0.11111111111111    0.44444444444445    0.17647058823529             8
    0.16666666666667    0.44444444444445    0.17647058823529             8
    0.22222222222222    0.44444444444445    0.17647058823529             8
    0.27777777777778    0.44444444444445    0.17647058823529             8
    0.33333333333333    0.44444444444445    0.17647058823529             8
    0.38888888888889    0.44444444444445    0.17647058823529             8
    0.44444444444445    0.44444444444445    0.17647058823529             8
    0.50000000000000    0.44444444444445    0.17647058823529             4
    0.00000000000000    0.00000000000000    0.23529411764706             2
    0.05555555555556    0.00000000000000    0.23529411764706             4
    0.11111111111111    0.00000000000000    0.23529411764706             4
    0.16666666666667    0.00000000000000    0.23529411764706             4
    0.22222222222222    0.00000000000000    0.23529411764706             4
    0.27777777777778    0.00000000000000    0.23529411764706             4
    0.33333333333333    0.00000000000000    0.23529411764706             4
    0.38888888888889    0.00000000000000    0.23529411764706             4
    0.44444444444445    0.00000000000000    0.23529411764706             4
    0.50000000000000    0.00000000000000    0.23529411764706             2
    0.00000000000000    0.11111111111111    0.23529411764706             4
    0.05555555555556    0.11111111111111    0.23529411764706             8
    0.11111111111111    0.11111111111111    0.23529411764706             8
    0.16666666666667    0.11111111111111    0.23529411764706             8
    0.22222222222222    0.11111111111111    0.23529411764706             8
    0.27777777777778    0.11111111111111    0.23529411764706             8
    0.33333333333333    0.11111111111111    0.23529411764706             8
    0.38888888888889    0.11111111111111    0.23529411764706             8
    0.44444444444445    0.11111111111111    0.23529411764706             8
    0.50000000000000    0.11111111111111    0.23529411764706             4
    0.00000000000000    0.22222222222222    0.23529411764706             4
    0.05555555555556    0.22222222222222    0.23529411764706             8
    0.11111111111111    0.22222222222222    0.23529411764706             8
    0.16666666666667    0.22222222222222    0.23529411764706             8
    0.22222222222222    0.22222222222222    0.23529411764706             8
    0.27777777777778    0.22222222222222    0.23529411764706             8
    0.33333333333333    0.22222222222222    0.23529411764706             8
    0.38888888888889    0.22222222222222    0.23529411764706             8
    0.44444444444445    0.22222222222222    0.23529411764706             8
    0.50000000000000    0.22222222222222    0.23529411764706             4
    0.00000000000000    0.33333333333333    0.23529411764706             4
    0.05555555555556    0.33333333333333    0.23529411764706             8
    0.11111111111111    0.33333333333333    0.23529411764706             8
    0.16666666666667    0.33333333333333    0.23529411764706             8
    0.22222222222222    0.33333333333333    0.23529411764706             8
    0.27777777777778    0.33333333333333    0.23529411764706             8
    0.33333333333333    0.33333333333333    0.23529411764706             8
    0.38888888888889    0.33333333333333    0.23529411764706             8
    0.44444444444445    0.33333333333333    0.23529411764706             8
    0.50000000000000    0.33333333333333    0.23529411764706             4
    0.00000000000000    0.44444444444445    0.23529411764706             4
    0.05555555555556    0.44444444444445    0.23529411764706             8
    0.11111111111111    0.44444444444445    0.23529411764706             8
    0.16666666666667    0.44444444444445    0.23529411764706             8
    0.22222222222222    0.44444444444445    0.23529411764706             8
    0.27777777777778    0.44444444444445    0.23529411764706             8
    0.33333333333333    0.44444444444445    0.23529411764706             8
    0.38888888888889    0.44444444444445    0.23529411764706             8
    0.44444444444445    0.44444444444445    0.23529411764706             8
    0.50000000000000    0.44444444444445    0.23529411764706             4
    0.00000000000000    0.00000000000000    0.29411764705882             2
    0.05555555555556    0.00000000000000    0.29411764705882             4
    0.11111111111111    0.00000000000000    0.29411764705882             4
    0.16666666666667    0.00000000000000    0.29411764705882             4
    0.22222222222222    0.00000000000000    0.29411764705882             4
    0.27777777777778    0.00000000000000    0.29411764705882             4
    0.33333333333333    0.00000000000000    0.29411764705882             4
    0.38888888888889    0.00000000000000    0.29411764705882             4
    0.44444444444445    0.00000000000000    0.29411764705882             4
    0.50000000000000    0.00000000000000    0.29411764705882             2
    0.00000000000000    0.11111111111111    0.29411764705882             4
    0.05555555555556    0.11111111111111    0.29411764705882             8
    0.11111111111111    0.11111111111111    0.29411764705882             8
    0.16666666666667    0.11111111111111    0.29411764705882             8
    0.22222222222222    0.11111111111111    0.29411764705882             8
    0.27777777777778    0.11111111111111    0.29411764705882             8
    0.33333333333333    0.11111111111111    0.29411764705882             8
    0.38888888888889    0.11111111111111    0.29411764705882             8
    0.44444444444445    0.11111111111111    0.29411764705882             8
    0.50000000000000    0.11111111111111    0.29411764705882             4
    0.00000000000000    0.22222222222222    0.29411764705882             4
    0.05555555555556    0.22222222222222    0.29411764705882             8
    0.11111111111111    0.22222222222222    0.29411764705882             8
    0.16666666666667    0.22222222222222    0.29411764705882             8
    0.22222222222222    0.22222222222222    0.29411764705882             8
    0.27777777777778    0.22222222222222    0.29411764705882             8
    0.33333333333333    0.22222222222222    0.29411764705882             8
    0.38888888888889    0.22222222222222    0.29411764705882             8
    0.44444444444445    0.22222222222222    0.29411764705882             8
    0.50000000000000    0.22222222222222    0.29411764705882             4
    0.00000000000000    0.33333333333333    0.29411764705882             4
    0.05555555555556    0.33333333333333    0.29411764705882             8
    0.11111111111111    0.33333333333333    0.29411764705882             8
    0.16666666666667    0.33333333333333    0.29411764705882             8
    0.22222222222222    0.33333333333333    0.29411764705882             8
    0.27777777777778    0.33333333333333    0.29411764705882             8
    0.33333333333333    0.33333333333333    0.29411764705882             8
    0.38888888888889    0.33333333333333    0.29411764705882             8
    0.44444444444445    0.33333333333333    0.29411764705882             8
    0.50000000000000    0.33333333333333    0.29411764705882             4
    0.00000000000000    0.44444444444445    0.29411764705882             4
    0.05555555555556    0.44444444444445    0.29411764705882             8
    0.11111111111111    0.44444444444445    0.29411764705882             8
    0.16666666666667    0.44444444444445    0.29411764705882             8
    0.22222222222222    0.44444444444445    0.29411764705882             8
    0.27777777777778    0.44444444444445    0.29411764705882             8
    0.33333333333333    0.44444444444445    0.29411764705882             8
    0.38888888888889    0.44444444444445    0.29411764705882             8
    0.44444444444445    0.44444444444445    0.29411764705882             8
    0.50000000000000    0.44444444444445    0.29411764705882             4
    0.00000000000000    0.00000000000000    0.35294117647059             2
    0.05555555555556    0.00000000000000    0.35294117647059             4
    0.11111111111111    0.00000000000000    0.35294117647059             4
    0.16666666666667    0.00000000000000    0.35294117647059             4
    0.22222222222222    0.00000000000000    0.35294117647059             4
    0.27777777777778    0.00000000000000    0.35294117647059             4
    0.33333333333333    0.00000000000000    0.35294117647059             4
    0.38888888888889    0.00000000000000    0.35294117647059             4
    0.44444444444445    0.00000000000000    0.35294117647059             4
    0.50000000000000    0.00000000000000    0.35294117647059             2
    0.00000000000000    0.11111111111111    0.35294117647059             4
    0.05555555555556    0.11111111111111    0.35294117647059             8
    0.11111111111111    0.11111111111111    0.35294117647059             8
    0.16666666666667    0.11111111111111    0.35294117647059             8
    0.22222222222222    0.11111111111111    0.35294117647059             8
    0.27777777777778    0.11111111111111    0.35294117647059             8
    0.33333333333333    0.11111111111111    0.35294117647059             8
    0.38888888888889    0.11111111111111    0.35294117647059             8
    0.44444444444445    0.11111111111111    0.35294117647059             8
    0.50000000000000    0.11111111111111    0.35294117647059             4
    0.00000000000000    0.22222222222222    0.35294117647059             4
    0.05555555555556    0.22222222222222    0.35294117647059             8
    0.11111111111111    0.22222222222222    0.35294117647059             8
    0.16666666666667    0.22222222222222    0.35294117647059             8
    0.22222222222222    0.22222222222222    0.35294117647059             8
    0.27777777777778    0.22222222222222    0.35294117647059             8
    0.33333333333333    0.22222222222222    0.35294117647059             8
    0.38888888888889    0.22222222222222    0.35294117647059             8
    0.44444444444445    0.22222222222222    0.35294117647059             8
    0.50000000000000    0.22222222222222    0.35294117647059             4
    0.00000000000000    0.33333333333333    0.35294117647059             4
    0.05555555555556    0.33333333333333    0.35294117647059             8
    0.11111111111111    0.33333333333333    0.35294117647059             8
    0.16666666666667    0.33333333333333    0.35294117647059             8
    0.22222222222222    0.33333333333333    0.35294117647059             8
    0.27777777777778    0.33333333333333    0.35294117647059             8
    0.33333333333333    0.33333333333333    0.35294117647059             8
    0.38888888888889    0.33333333333333    0.35294117647059             8
    0.44444444444445    0.33333333333333    0.35294117647059             8
    0.50000000000000    0.33333333333333    0.35294117647059             4
    0.00000000000000    0.44444444444445    0.35294117647059             4
    0.05555555555556    0.44444444444445    0.35294117647059             8
    0.11111111111111    0.44444444444445    0.35294117647059             8
    0.16666666666667    0.44444444444445    0.35294117647059             8
    0.22222222222222    0.44444444444445    0.35294117647059             8
    0.27777777777778    0.44444444444445    0.35294117647059             8
    0.33333333333333    0.44444444444445    0.35294117647059             8
    0.38888888888889    0.44444444444445    0.35294117647059             8
    0.44444444444445    0.44444444444445    0.35294117647059             8
    0.50000000000000    0.44444444444445    0.35294117647059             4
    0.00000000000000    0.00000000000000    0.41176470588235             2
    0.05555555555556    0.00000000000000    0.41176470588235             4
    0.11111111111111    0.00000000000000    0.41176470588235             4
    0.16666666666667    0.00000000000000    0.41176470588235             4
    0.22222222222222    0.00000000000000    0.41176470588235             4
    0.27777777777778    0.00000000000000    0.41176470588235             4
    0.33333333333333    0.00000000000000    0.41176470588235             4
    0.38888888888889    0.00000000000000    0.41176470588235             4
    0.44444444444445    0.00000000000000    0.41176470588235             4
    0.50000000000000    0.00000000000000    0.41176470588235             2
    0.00000000000000    0.11111111111111    0.41176470588235             4
    0.05555555555556    0.11111111111111    0.41176470588235             8
    0.11111111111111    0.11111111111111    0.41176470588235             8
    0.16666666666667    0.11111111111111    0.41176470588235             8
    0.22222222222222    0.11111111111111    0.41176470588235             8
    0.27777777777778    0.11111111111111    0.41176470588235             8
    0.33333333333333    0.11111111111111    0.41176470588235             8
    0.38888888888889    0.11111111111111    0.41176470588235             8
    0.44444444444445    0.11111111111111    0.41176470588235             8
    0.50000000000000    0.11111111111111    0.41176470588235             4
    0.00000000000000    0.22222222222222    0.41176470588235             4
    0.05555555555556    0.22222222222222    0.41176470588235             8
    0.11111111111111    0.22222222222222    0.41176470588235             8
    0.16666666666667    0.22222222222222    0.41176470588235             8
    0.22222222222222    0.22222222222222    0.41176470588235             8
    0.27777777777778    0.22222222222222    0.41176470588235             8
    0.33333333333333    0.22222222222222    0.41176470588235             8
    0.38888888888889    0.22222222222222    0.41176470588235             8
    0.44444444444445    0.22222222222222    0.41176470588235             8
    0.50000000000000    0.22222222222222    0.41176470588235             4
    0.00000000000000    0.33333333333333    0.41176470588235             4
    0.05555555555556    0.33333333333333    0.41176470588235             8
    0.11111111111111    0.33333333333333    0.41176470588235             8
    0.16666666666667    0.33333333333333    0.41176470588235             8
    0.22222222222222    0.33333333333333    0.41176470588235             8
    0.27777777777778    0.33333333333333    0.41176470588235             8
    0.33333333333333    0.33333333333333    0.41176470588235             8
    0.38888888888889    0.33333333333333    0.41176470588235             8
    0.44444444444445    0.33333333333333    0.41176470588235             8
    0.50000000000000    0.33333333333333    0.41176470588235             4
    0.00000000000000    0.44444444444445    0.41176470588235             4
    0.05555555555556    0.44444444444445    0.41176470588235             8
    0.11111111111111    0.44444444444445    0.41176470588235             8
    0.16666666666667    0.44444444444445    0.41176470588235             8
    0.22222222222222    0.44444444444445    0.41176470588235             8
    0.27777777777778    0.44444444444445    0.41176470588235             8
    0.33333333333333    0.44444444444445    0.41176470588235             8
    0.38888888888889    0.44444444444445    0.41176470588235             8
    0.44444444444445    0.44444444444445    0.41176470588235             8