       N       E                     dE             d eps       ncg     rms          rms(c)
DAV:   1     0.589309376759E+02    0.58931E+02   -0.65677E+03 11924   0.177E+03
DAV:   2    -0.348561708366E+01   -0.62417E+02   -0.60683E+02 12510   0.275E+02
DAV:   3    -0.695884600067E+01   -0.34732E+01   -0.34335E+01 14593   0.578E+01
DAV:   4    -0.699003367240E+01   -0.31188E-01   -0.30973E-01 13160   0.538E+00
DAV:   5    -0.699022987266E+01   -0.19620E-03   -0.19619E-03 14445   0.445E-01    0.161E+00
RMM:   6    -0.695432170677E+01    0.35908E-01   -0.41881E-02 12356   0.259E+00    0.879E-01
RMM:   7    -0.694292207408E+01    0.11400E-01   -0.17583E-02 12554   0.157E+00    0.226E-01
RMM:   8    -0.694201980215E+01    0.90227E-03   -0.15085E-03 12653   0.526E-01    0.318E-02
RMM:   9    -0.694201812197E+01    0.16802E-05   -0.10676E-04  8139   0.146E-01
   1 F= -.69420181E+01 E0= -.69417502E+01  d E =-.694202E+01
       N       E                     dE             d eps       ncg     rms          rms(c)
DAV:   1    -0.208718216367E+02   -0.13930E+02   -0.30153E+02 14940   0.473E+02    0.199E+01
RMM:   2    -0.109089330879E+02    0.99629E+01   -0.14801E+01 12123   0.422E+01    0.104E+01
RMM:   3    -0.749395584960E+01    0.34150E+01   -0.10217E+01 11869   0.365E+01    0.107E+00
RMM:   4    -0.716380896582E+01    0.33015E+00   -0.12028E+00 12956   0.142E+01    0.113E+00
RMM:   5    -0.714016874081E+01    0.23640E-01   -0.35444E-01 12167   0.701E+00    0.449E-01
RMM:   6    -0.711627030101E+01    0.23898E-01   -0.92648E-02 12966   0.401E+00    0.557E-02
RMM:   7    -0.711619848244E+01    0.71819E-04   -0.51400E-04  9113   0.199E-01
   2 F= -.71161985E+01 E0= -.71164711E+01  d E =-.174180E+00
       N       E                     dE             d eps       ncg     rms          rms(c)
DAV:   1    -0.101747190458E+02   -0.30584E+01   -0.36700E+01 14415   0.900E+01    0.100E+01
RMM:   2    -0.794616318599E+01    0.22286E+01   -0.57581E+00 12488   0.337E+01    0.405E+00
RMM:   3    -0.746911701856E+01    0.47705E+00   -0.28452E-01 12637   0.440E+00    0.143E+00
RMM:   4    -0.740474731709E+01    0.64370E-01   -0.28693E-02 12421   0.149E+00    0.664E-01
RMM:   5    -0.738378939412E+01    0.20958E-01   -0.12643E-02 12244   0.104E+00    0.375E-02
RMM:   6    -0.738349078303E+01    0.29861E-03   -0.82946E-04 11782   0.419E-01    0.168E-02
RMM:   7    -0.738348550992E+01    0.52731E-05   -0.47349E-05  7596   0.498E-02
   3 F= -.73834855E+01 E0= -.73834968E+01  d E =-.441467E+00
       N       E                     dE             d eps       ncg     rms          rms(c)
DAV:   1    -0.739932081147E+01   -0.15830E-01   -0.22962E-01 15075   0.890E+00    0.724E-01
RMM:   2    -0.738719581712E+01    0.12125E-01   -0.23378E-02 12352   0.208E+00    0.330E-01
RMM:   3    -0.738400343245E+01    0.31924E-02   -0.42590E-03 12351   0.780E-01    0.698E-02
RMM:   4    -0.738372871404E+01    0.27472E-03   -0.18124E-04  8383   0.149E-01    0.364E-02
RMM:   5    -0.738363364911E+01    0.95065E-04   -0.11061E-04  7597   0.121E-01
   4 F= -.73836336E+01 E0= -.73835814E+01  d E =-.441616E+00
       N       E                     dE             d eps       ncg     rms          rms(c)
DAV:   1    -0.739414494101E+01   -0.10416E-01   -0.16998E-01 13545   0.404E+00    0.506E-01
RMM:   2    -0.738875316304E+01    0.53918E-02   -0.58746E-03 12545   0.639E-01    0.301E-01
RMM:   3    -0.738606552282E+01    0.26876E-02   -0.28855E-03 12645   0.440E-01    0.367E-02
RMM:   4    -0.738602929441E+01    0.36228E-04   -0.10902E-04  8334   0.981E-02    0.175E-02
RMM:   5    -0.738602605493E+01    0.32395E-05   -0.33474E-05  7423   0.518E-02
   5 F= -.73860261E+01 E0= -.73860707E+01  d E =-.239241E-02
       N       E                     dE             d eps       ncg     rms          rms(c)
DAV:   1    -0.742453887437E+01   -0.38510E-01   -0.79051E-01 13460   0.868E+00    0.109E+00
RMM:   2    -0.739937032306E+01    0.25169E-01   -0.27221E-02 12565   0.138E+00    0.647E-01
RMM:   3    -0.738682111812E+01    0.12549E-01   -0.13977E-02 12696   0.958E-01    0.758E-02
RMM:   4    -0.738664753620E+01    0.17358E-03   -0.46790E-04  9360   0.213E-01    0.382E-02
RMM:   5    -0.738663113720E+01    0.16399E-04   -0.73565E-05  7629   0.872E-02
   6 F= -.73866311E+01 E0= -.73866130E+01  d E =-.299749E-02
       N       E                     dE             d eps       ncg     rms          rms(c)
DAV:   1    -0.741970910039E+01   -0.33062E-01   -0.58874E-01 14605   0.130E+01    0.106E+00
RMM:   2    -0.739436418759E+01    0.25345E-01   -0.53631E-02 12448   0.292E+00    0.514E-01
RMM:   3    -0.738660904945E+01    0.77551E-02   -0.12220E-02 12627   0.126E+00    0.976E-02
RMM:   4    -0.738604430489E+01    0.56474E-03   -0.62279E-04 11168   0.283E-01    0.436E-02
RMM:   5    -0.738591564335E+01    0.12866E-03   -0.18498E-04  7648   0.193E-01    0.113E-02
RMM:   6    -0.738591403388E+01    0.16095E-05   -0.35802E-05  7275   0.577E-02
   7 F= -.73859140E+01 E0= -.73859221E+01  d E =0.717103E-03
       N       E                     dE             d eps       ncg     rms          rms(c)
DAV:   1    -0.739725347570E+01   -0.11338E-01   -0.17095E-01 14585   0.678E+00    0.584E-01
RMM:   2    -0.738960558541E+01    0.76479E-02   -0.16532E-02 12453   0.162E+00    0.280E-01
RMM:   3    -0.738733772510E+01    0.22679E-02   -0.32844E-03 12664   0.637E-01    0.579E-02
RMM:   4    -0.738716830461E+01    0.16942E-03   -0.17944E-04  8160   0.145E-01    0.252E-02
RMM:   5    -0.738713368232E+01    0.34622E-04   -0.47766E-05  7324   0.739E-02
   8 F= -.73871337E+01 E0= -.73871205E+01  d E =-.502545E-03
