unknown system                          
           1
     2.482000    0.000000    0.000000
     0.000000    4.830000    0.000000
     0.000000    0.000000    2.618000
   As   Ga
   1   1
unknown system                          
           1
     2.808729    0.000000    0.000000
     0.000000    5.323491    0.000000
     0.000000    0.000000    2.894611
   As   Ga
   1   1
Direct configuration=     1
   0.00000000  0.00000000  0.00000000
   0.00000000  0.50000000  0.35000000
unknown system                          
           1
     2.668490    0.000000    0.000000
     0.000000    5.111673    0.000000
     0.000000    0.000000    2.775883
   As   Ga
   1   1
Direct configuration=     2
   0.00000000  0.00000000 -0.00241509
   0.00000000  0.50000000  0.35241509
unknown system                          
           1
     2.657944    0.000000    0.000000
     0.000000    5.095745    0.000000
     0.000000    0.000000    2.766955
   As   Ga
   1   1
Direct configuration=     3
   0.00000000  0.00000000 -0.00147754
   0.00000000  0.50000000  0.35147754
unknown system                          
           1
     2.661019    0.000000    0.000000
     0.000000    5.122984    0.000000
     0.000000    0.000000    2.751759
   As   Ga
   1   1
Direct configuration=     4
   0.00000000  0.00000000 -0.00140402
   0.00000000  0.50000000  0.35140402
unknown system                          
           1
     2.667621    0.000000    0.000000
     0.000000    5.181478    0.000000
     0.000000    0.000000    2.719126
   As   Ga
   1   1
Direct configuration=     5
   0.00000000  0.00000000 -0.00130713
   0.00000000  0.50000000  0.35130713
unknown system                          
           1
     2.671431    0.000000    0.000000
     0.000000    5.196662    0.000000
     0.000000    0.000000    2.745638
   As   Ga
   1   1
Direct configuration=     6
   0.00000000  0.00000000 -0.00109791
   0.00000000  0.50000000  0.35109791
unknown system                          
           1
     2.669346    0.000000    0.000000
     0.000000    5.188352    0.000000
     0.000000    0.000000    2.731129
   As   Ga
   1   1
Direct configuration=     7
   0.00000000  0.00000000 -0.00006237
   0.00000000  0.50000000  0.35006237
unknown system                          
           1
     2.669346    0.000000    0.000000
     0.000000    5.188352    0.000000
     0.000000    0.000000    2.731129
   As   Ga
   1   1
Direct configuration=     8
   0.00000000  0.00000000 -0.00062362
   0.00000000  0.50000000  0.35062362
