 vasp.5.3.2 13Sep12 (build Mar 19 2013 12:21:59) complex                        
  
 executed on             LinuxIFC date 2014.01.27  02:50:50
 running on    8 total cores
 distrk:  each k-point on    8 cores,    1 groups
 distr:  one band on NCORES_PER_BAND=   4 cores,    2 groups


--------------------------------------------------------------------------------------------------------


 INCAR:
 POTCAR:  PAW_PBE Ca_pv 06Sep2000                 
 POTCAR:  PAW_PBE O 08Apr2002                     
 POTCAR:  PAW_PBE S 17Jan2003                     
 POTCAR:  PAW_PBE Ca_pv 06Sep2000                 
   VRHFIN =Ca: p6s2d0.01                                                        
   LEXCH  = PE                                                                  
   EATOM  =   612.5326 eV,   45.0199 Ry                                         
                                                                                
   TITEL  = PAW_PBE Ca_pv 06Sep2000                                             
   LULTRA =        F    use ultrasoft PP ?                                      
   IUNSCR =        1    unscreen: 0-lin 1-nonlin 2-no                           
   RPACOR =    2.300    partial core radius                                     
   POMASS =   40.078; ZVAL   =    8.000    mass and valenz                      
   RCORE  =    3.000    outmost cutoff radius                                   
   RWIGS  =    3.300; RWIGS  =    1.746    wigner-seitz radius (au A)           
   ENMAX  =  119.554; ENMIN  =   89.665 eV                                      
   RCLOC  =    1.709    cutoff for local pot                                    
   LCOR   =        T    correct aug charges                                     
   LPAW   =        T    paw PP                                                  
   EAUG   =  325.799                                                            
   DEXC   =    -.003                                                            
   RMAX   =    4.217    core radius for proj-oper                               
   RAUG   =    1.300    factor for augmentation sphere                          
   RDEP   =    3.090    radius for radial grids                                 
   QCUT   =   -2.964; QGAM   =    5.929    optimization parameters              
                                                                                
   Description                                                                  
     l     E      TYP  RCUT    TYP  RCUT                                        
     1   .000     23  3.000                                                     
     1   .100     23  3.000                                                     
     0   .000     23  3.000                                                     
     0   .000     23  3.000                                                     
     2   .000     23  3.000                                                     
     2   .000     23  3.000                                                     
  local pseudopotential read in
  partial core-charges read in
  atomic valenz-charges read in
  non local Contribution for L=           1  read in
    real space projection operators read in
  non local Contribution for L=           1  read in
    real space projection operators read in
  non local Contribution for L=           0  read in
    real space projection operators read in
  non local Contribution for L=           0  read in
    real space projection operators read in
  non local Contribution for L=           2  read in
    real space projection operators read in
  non local Contribution for L=           2  read in
    real space projection operators read in
    PAW grid and wavefunctions read in
 
   number of l-projection  operators is LMAX  =           6
   number of lm-projection operators is LMMAX =          18
 
 POTCAR:  PAW_PBE O 08Apr2002                     
   VRHFIN =O: s2p4                                                              
   LEXCH  = PE                                                                  
   EATOM  =   432.3788 eV,   31.7789 Ry                                         
                                                                                
   TITEL  = PAW_PBE O 08Apr2002                                                 
   LULTRA =        F    use ultrasoft PP ?                                      
   IUNSCR =        0    unscreen: 0-lin 1-nonlin 2-no                           
   RPACOR =     .000    partial core radius                                     
   POMASS =   16.000; ZVAL   =    6.000    mass and valenz                      
   RCORE  =    1.520    outmost cutoff radius                                   
   RWIGS  =    1.550; RWIGS  =     .820    wigner-seitz radius (au A)           
   ENMAX  =  400.000; ENMIN  =  300.000 eV                                      
   ICORE  =        2    local potential                                         
   LCOR   =        T    correct aug charges                                     
   LPAW   =        T    paw PP                                                  
   EAUG   =  605.392                                                            
   DEXC   =     .000                                                            
   RMAX   =    2.264    core radius for proj-oper                               
   RAUG   =    1.300    factor for augmentation sphere                          
   RDEP   =    1.550    radius for radial grids                                 
   QCUT   =   -5.520; QGAM   =   11.041    optimization parameters              
                                                                                
   Description                                                                  
     l     E      TYP  RCUT    TYP  RCUT                                        
     0   .000     23  1.200                                                     
     0  -.700     23  1.200                                                     
     1   .000     23  1.520                                                     
     1   .600     23  1.520                                                     
     2   .000      7  1.500                                                     
  local pseudopotential read in
  atomic valenz-charges read in
  non local Contribution for L=           0  read in
    real space projection operators read in
  non local Contribution for L=           0  read in
    real space projection operators read in
  non local Contribution for L=           1  read in
    real space projection operators read in
  non local Contribution for L=           1  read in
    real space projection operators read in
    PAW grid and wavefunctions read in
 
   number of l-projection  operators is LMAX  =           4
   number of lm-projection operators is LMMAX =           8
 
 POTCAR:  PAW_PBE S 17Jan2003                     
   VRHFIN =S : s2p4                                                             
   LEXCH  = PE                                                                  
   EATOM  =   276.8230 eV,   20.3459 Ry                                         
                                                                                
   TITEL  = PAW_PBE S 17Jan2003                                                 
   LULTRA =        F    use ultrasoft PP ?                                      
   IUNSCR =        1    unscreen: 0-lin 1-nonlin 2-no                           
   RPACOR =    1.500    partial core radius                                     
   POMASS =   32.066; ZVAL   =    6.000    mass and valenz                      
   RCORE  =    1.900    outmost cutoff radius                                   
   RWIGS  =    2.200; RWIGS  =    1.164    wigner-seitz radius (au A)           
   ENMAX  =  280.000; ENMIN  =  194.016 eV                                      
   ICORE  =        2    local potential                                         
   LCOR   =        T    correct aug charges                                     
   LPAW   =        T    paw PP                                                  
   EAUG   =  335.092                                                            
   DEXC   =     .000                                                            
   RMAX   =    2.867    core radius for proj-oper                               
   RAUG   =    1.300    factor for augmentation sphere                          
   RDEP   =    1.954    radius for radial grids                                 
   QCUT   =   -4.360; QGAM   =    8.721    optimization parameters              
                                                                                
   Description                                                                  
     l     E      TYP  RCUT    TYP  RCUT                                        
     0   .000     23  1.900                                                     
     0   .000     23  1.900                                                     
     1   .000     23  1.900                                                     
     1   .000     23  1.900                                                     
     2   .000     23  1.900                                                     
  local pseudopotential read in
  partial core-charges read in
  atomic valenz-charges read in
  non local Contribution for L=           0  read in
    real space projection operators read in
  non local Contribution for L=           0  read in
    real space projection operators read in
  non local Contribution for L=           1  read in
    real space projection operators read in
  non local Contribution for L=           1  read in
    real space projection operators read in
    PAW grid and wavefunctions read in
 
   number of l-projection  operators is LMAX  =           4
   number of lm-projection operators is LMMAX =           8
 
PAW_PBE Ca_pv 06Sep2000                 :
 energy of atom  1       EATOM= -612.5326
 kinetic energy error for atom=    0.0001 (will be added to EATOM!!)
PAW_PBE O 08Apr2002                     :
 energy of atom  2       EATOM= -432.3788
 kinetic energy error for atom=    0.0208 (will be added to EATOM!!)
PAW_PBE S 17Jan2003                     :
 energy of atom  3       EATOM= -276.8230
 kinetic energy error for atom=    0.0016 (will be added to EATOM!!)
 
 
 POSCAR: Ca S O                                  
  positions in direct lattice
  No initial velocities read in
 exchange correlation table for  LEXCH =        8
   RHO(1)=    0.500       N(1)  =     2000
   RHO(2)=  100.500       N(2)  =     4000
 


--------------------------------------------------------------------------------------------------------


 ion  position               nearest neighbor table
   1  0.348  0.652  0.250-   7 2.31  10 2.31   5 2.43   4 2.43   6 2.49   3 2.49   4 2.54   5 2.54
                            11 3.08  11 3.12  11 3.47  11 3.47   2 3.95   2 3.95
   2  0.652  0.348  0.750-   3 2.31   6 2.31   9 2.43   8 2.43  10 2.49   7 2.49   8 2.54   9 2.54
                            12 3.08  12 3.12  12 3.47  12 3.47   1 3.95   1 3.95
   3  0.701  0.299  0.079-  11 1.48   2 2.31   1 2.49
   4  0.159  0.186  0.250-  11 1.48   1 2.43   1 2.54
   5  0.814  0.841  0.250-  11 1.48   1 2.43   1 2.54
   6  0.701  0.299  0.421-  11 1.48   2 2.31   1 2.49
   7  0.299  0.701  0.579-  12 1.48   1 2.31   2 2.49
   8  0.186  0.159  0.750-  12 1.48   2 2.43   2 2.54
   9  0.841  0.814  0.750-  12 1.48   2 2.43   2 2.54
  10  0.299  0.701  0.921-  12 1.48   1 2.31   2 2.49
  11  0.845  0.155  0.250-   4 1.48   5 1.48   6 1.48   3 1.48   1 3.08   1 3.12   1 3.47   1 3.47

  12  0.155  0.845  0.750-   8 1.48   9 1.48  10 1.48   7 1.48   2 3.08   2 3.12   2 3.47   2 3.47

 
  LATTYP: Found a base centered orthorhombic cell.
 ALAT       =     6.1940400000
 B/A-ratio  =     1.1191099831
 C/A-ratio  =     1.1222071540
  
  Lattice vectors:
  
 A1 = (   3.4659060000,   0.0000000000,   3.0970200000)
 A2 = (  -3.4659060000,   0.0000000000,   3.0970200000)
 A3 = (   0.0000000000,  -6.9509960000,   0.0000000000)


Analysis of symmetry for initial positions (statically):
=====================================================================
 Subroutine PRICEL returns:
 Original cell was already a primitive cell.
 

 Routine SETGRP: Setting up the symmetry group for a 
 base centered orthorhombic supercell.


 Subroutine GETGRP returns: Found  8 space group operations
 (whereof  4 operations were pure point group operations)
 out of a pool of  8 trial point group operations.


The static configuration has the point symmetry C_2h.
 The point group associated with its full space group is D_2h.


Analysis of symmetry for dynamics (positions and initial velocities):
=====================================================================
 Subroutine PRICEL returns:
 Original cell was already a primitive cell.
 

 Routine SETGRP: Setting up the symmetry group for a 
 base centered orthorhombic supercell.


 Subroutine GETGRP returns: Found  8 space group operations
 (whereof  4 operations were pure point group operations)
 out of a pool of  8 trial point group operations.


The dynamic configuration has the point symmetry C_2h.
 The point group associated with its full space group is D_2h.
 
 
 KPOINTS: KPOINTS                                 

Automatic generation of k-mesh.
Space group operators:
 irot       det(A)        alpha          n_x          n_y          n_z        tau_x        tau_y        tau_z
    1     1.000000     0.000000     1.000000     0.000000     0.000000     0.000000     0.000000     0.000000
    2    -1.000000     0.000000     1.000000     0.000000     0.000000     0.000000     0.000000     0.000000
    3     1.000000   180.000000     1.000000     0.000000     0.000000     0.000000     0.000000     0.000000
    4    -1.000000   180.000000     1.000000     0.000000     0.000000     0.000000     0.000000     0.000000
    5     1.000000   180.000000     0.000000     1.000000     0.000000     0.000001     0.000000    -0.500000
    6    -1.000000   180.000000     0.000000     1.000000     0.000000     0.000000     0.000000    -0.499999
    7     1.000000   179.999999     0.000000     0.000000     1.000000     0.000001     0.000000    -0.499999
    8    -1.000000   179.999999     0.000000     0.000000     1.000000     0.000000     0.000000    -0.500000
 
 Subroutine IBZKPT returns following result:
 ===========================================
 
 Found    124 irreducible k-points:
 
 Following reciprocal coordinates:
            Coordinates               Weight
  0.000000  0.000000  0.000000      1.000000
  0.100000  0.000000  0.000000      4.000000
  0.200000  0.000000  0.000000      4.000000
  0.300000  0.000000  0.000000      4.000000
  0.400000  0.000000  0.000000      4.000000
  0.500000  0.000000  0.000000      2.000000
  0.100000  0.100000  0.000000      2.000000
  0.200000  0.100000  0.000000      4.000000
  0.300000  0.100000  0.000000      4.000000
  0.400000  0.100000  0.000000      4.000000
  0.500000  0.100000  0.000000      4.000000
 -0.400000  0.100000  0.000000      4.000000
 -0.300000  0.100000  0.000000      4.000000
 -0.200000  0.100000  0.000000      4.000000
 -0.100000  0.100000  0.000000      2.000000
  0.200000  0.200000  0.000000      2.000000
  0.300000  0.200000  0.000000      4.000000
  0.400000  0.200000  0.000000      4.000000
  0.500000  0.200000  0.000000      4.000000
 -0.400000  0.200000  0.000000      4.000000
 -0.300000  0.200000  0.000000      4.000000
 -0.200000  0.200000  0.000000      2.000000
  0.300000  0.300000  0.000000      2.000000
  0.400000  0.300000  0.000000      4.000000
  0.500000  0.300000  0.000000      4.000000
 -0.400000  0.300000  0.000000      4.000000
 -0.300000  0.300000  0.000000      2.000000
  0.400000  0.400000  0.000000      2.000000
  0.500000  0.400000  0.000000      4.000000
 -0.400000  0.400000  0.000000      2.000000
  0.500000  0.500000  0.000000      1.000000
  0.000000  0.000000  0.166667      2.000000
  0.100000  0.000000  0.166667      8.000000
  0.200000  0.000000  0.166667      8.000000
  0.300000  0.000000  0.166667      8.000000
  0.400000  0.000000  0.166667      8.000000
  0.500000  0.000000  0.166667      4.000000
  0.100000  0.100000  0.166667      4.000000
  0.200000  0.100000  0.166667      8.000000
  0.300000  0.100000  0.166667      8.000000
  0.400000  0.100000  0.166667      8.000000
  0.500000  0.100000  0.166667      8.000000
 -0.400000  0.100000  0.166667      8.000000
 -0.300000  0.100000  0.166667      8.000000
 -0.200000  0.100000  0.166667      8.000000
 -0.100000  0.100000  0.166667      4.000000
  0.200000  0.200000  0.166667      4.000000
  0.300000  0.200000  0.166667      8.000000
  0.400000  0.200000  0.166667      8.000000
  0.500000  0.200000  0.166667      8.000000
 -0.400000  0.200000  0.166667      8.000000
 -0.300000  0.200000  0.166667      8.000000
 -0.200000  0.200000  0.166667      4.000000
  0.300000  0.300000  0.166667      4.000000
  0.400000  0.300000  0.166667      8.000000
  0.500000  0.300000  0.166667      8.000000
 -0.400000  0.300000  0.166667      8.000000
 -0.300000  0.300000  0.166667      4.000000
  0.400000  0.400000  0.166667      4.000000
  0.500000  0.400000  0.166667      8.000000
 -0.400000  0.400000  0.166667      4.000000
  0.500000  0.500000  0.166667      2.000000
  0.000000  0.000000  0.333333      2.000000
  0.100000  0.000000  0.333333      8.000000
  0.200000  0.000000  0.333333      8.000000
  0.300000  0.000000  0.333333      8.000000
  0.400000  0.000000  0.333333      8.000000
  0.500000  0.000000  0.333333      4.000000
  0.100000  0.100000  0.333333      4.000000
  0.200000  0.100000  0.333333      8.000000
  0.300000  0.100000  0.333333      8.000000
  0.400000  0.100000  0.333333      8.000000
  0.500000  0.100000  0.333333      8.000000
 -0.400000  0.100000  0.333333      8.000000
 -0.300000  0.100000  0.333333      8.000000
 -0.200000  0.100000  0.333333      8.000000
 -0.100000  0.100000  0.333333      4.000000
  0.200000  0.200000  0.333333      4.000000
  0.300000  0.200000  0.333333      8.000000
  0.400000  0.200000  0.333333      8.000000
  0.500000  0.200000  0.333333      8.000000
 -0.400000  0.200000  0.333333      8.000000
 -0.300000  0.200000  0.333333      8.000000
 -0.200000  0.200000  0.333333      4.000000
  0.300000  0.300000  0.333333      4.000000
  0.400000  0.300000  0.333333      8.000000
  0.500000  0.300000  0.333333      8.000000
 -0.400000  0.300000  0.333333      8.000000
 -0.300000  0.300000  0.333333      4.000000
  0.400000  0.400000  0.333333      4.000000
  0.500000  0.400000  0.333333      8.000000
 -0.400000  0.400000  0.333333      4.000000
  0.500000  0.500000  0.333333      2.000000
  0.000000  0.000000  0.500000      1.000000
  0.100000  0.000000  0.500000      4.000000
  0.200000  0.000000  0.500000      4.000000
  0.300000  0.000000  0.500000      4.000000
  0.400000  0.000000  0.500000      4.000000
  0.500000  0.000000  0.500000      2.000000
  0.100000  0.100000  0.500000      2.000000
  0.200000  0.100000  0.500000      4.000000
  0.300000  0.100000  0.500000      4.000000
  0.400000  0.100000  0.500000      4.000000
  0.500000  0.100000  0.500000      4.000000
 -0.400000  0.100000  0.500000      4.000000
 -0.300000  0.100000  0.500000      4.000000
 -0.200000  0.100000  0.500000      4.000000
 -0.100000  0.100000  0.500000      2.000000
  0.200000  0.200000  0.500000      2.000000
  0.300000  0.200000  0.500000      4.000000
  0.400000  0.200000  0.500000      4.000000
  0.500000  0.200000  0.500000      4.000000
 -0.400000  0.200000  0.500000      4.000000
 -0.300000  0.200000  0.500000      4.000000
 -0.200000  0.200000  0.500000      2.000000
  0.300000  0.300000  0.500000      2.000000
  0.400000  0.300000  0.500000      4.000000
  0.500000  0.300000  0.500000      4.000000
 -0.400000  0.300000  0.500000      4.000000
 -0.300000  0.300000  0.500000      2.000000
  0.400000  0.400000  0.500000      2.000000
  0.500000  0.400000  0.500000      4.000000
 -0.400000  0.400000  0.500000      2.000000
  0.500000  0.500000  0.500000      1.000000
 
 Following cartesian coordinates:
            Coordinates               Weight
  0.000000  0.000000  0.000000      1.000000
  0.014426  0.000000  0.016145      4.000000
  0.028852  0.000000  0.032289      4.000000
  0.043279  0.000000  0.048434      4.000000
  0.057705  0.000000  0.064578      4.000000
  0.072131  0.000000  0.080723      2.000000
  0.028852  0.000000  0.000000      2.000000
  0.043279  0.000000  0.016145      4.000000
  0.057705  0.000000  0.032289      4.000000
  0.072131  0.000000  0.048434      4.000000
  0.086557  0.000000  0.064578      4.000000
 -0.043279  0.000000 -0.080723      4.000000
 -0.028852  0.000000 -0.064578      4.000000
 -0.014426  0.000000 -0.048434      4.000000
  0.000000  0.000000 -0.032289      2.000000
  0.057705  0.000000  0.000000      2.000000
  0.072131  0.000000  0.016145      4.000000
  0.086557  0.000000  0.032289      4.000000
  0.100984  0.000000  0.048434      4.000000
 -0.028852  0.000000 -0.096867      4.000000
 -0.014426  0.000000 -0.080723      4.000000
  0.000000  0.000000 -0.064578      2.000000
  0.086557  0.000000  0.000000      2.000000
  0.100984  0.000000  0.016145      4.000000
  0.115410  0.000000  0.032289      4.000000
 -0.014426  0.000000 -0.113012      4.000000
  0.000000  0.000000 -0.096867      2.000000
  0.115410  0.000000  0.000000      2.000000
  0.129836  0.000000  0.016145      4.000000
  0.000000  0.000000 -0.129156      2.000000
  0.144262  0.000000  0.000000      1.000000
  0.000000  0.023977  0.000000      2.000000
  0.014426  0.023977  0.016145      8.000000
  0.028852  0.023977  0.032289      8.000000
  0.043279  0.023977  0.048434      8.000000
  0.057705  0.023977  0.064578      8.000000
  0.072131  0.023977  0.080723      4.000000
  0.028852  0.023977  0.000000      4.000000
  0.043279  0.023977  0.016145      8.000000
  0.057705  0.023977  0.032289      8.000000
  0.072131  0.023977  0.048434      8.000000
  0.086557  0.023977  0.064578      8.000000
 -0.043279  0.023977 -0.080723      8.000000
 -0.028852  0.023977 -0.064578      8.000000
 -0.014426  0.023977 -0.048434      8.000000
  0.000000  0.023977 -0.032289      4.000000
  0.057705  0.023977  0.000000      4.000000
  0.072131  0.023977  0.016145      8.000000
  0.086557  0.023977  0.032289      8.000000
  0.100984  0.023977  0.048434      8.000000
 -0.028852  0.023977 -0.096867      8.000000
 -0.014426  0.023977 -0.080723      8.000000
  0.000000  0.023977 -0.064578      4.000000
  0.086557  0.023977  0.000000      4.000000
  0.100984  0.023977  0.016145      8.000000
  0.115410  0.023977  0.032289      8.000000
 -0.014426  0.023977 -0.113012      8.000000
  0.000000  0.023977 -0.096867      4.000000
  0.115410  0.023977  0.000000      4.000000
  0.129836  0.023977  0.016145      8.000000
  0.000000  0.023977 -0.129156      4.000000
  0.144262  0.023977  0.000000      2.000000
  0.000000  0.047955  0.000000      2.000000
  0.014426  0.047955  0.016145      8.000000
  0.028852  0.047955  0.032289      8.000000
  0.043279  0.047955  0.048434      8.000000
  0.057705  0.047955  0.064578      8.000000
  0.072131  0.047955  0.080723      4.000000
  0.028852  0.047955  0.000000      4.000000
  0.043279  0.047955  0.016145      8.000000
  0.057705  0.047955  0.032289      8.000000
  0.072131  0.047955  0.048434      8.000000
  0.086557  0.047955  0.064578      8.000000
 -0.043279  0.047955 -0.080723      8.000000
 -0.028852  0.047955 -0.064578      8.000000
 -0.014426  0.047955 -0.048434      8.000000
  0.000000  0.047955 -0.032289      4.000000
  0.057705  0.047955  0.000000      4.000000
  0.072131  0.047955  0.016145      8.000000
  0.086557  0.047955  0.032289      8.000000
  0.100984  0.047955  0.048434      8.000000
 -0.028852  0.047955 -0.096867      8.000000
 -0.014426  0.047955 -0.080723      8.000000
  0.000000  0.047955 -0.064578      4.000000
  0.086557  0.047955  0.000000      4.000000
  0.100984  0.047955  0.016145      8.000000
  0.115410  0.047955  0.032289      8.000000
 -0.014426  0.047955 -0.113012      8.000000
  0.000000  0.047955 -0.096867      4.000000
  0.115410  0.047955  0.000000      4.000000
  0.129836  0.047955  0.016145      8.000000
  0.000000  0.047955 -0.129156      4.000000
  0.144262  0.047955  0.000000      2.000000
  0.000000  0.071932  0.000000      1.000000
  0.014426  0.071932  0.016145      4.000000
  0.028852  0.071932  0.032289      4.000000
  0.043279  0.071932  0.048434      4.000000
  0.057705  0.071932  0.064578      4.000000
  0.072131  0.071932  0.080723      2.000000
  0.028852  0.071932  0.000000      2.000000
  0.043279  0.071932  0.016145      4.000000
  0.057705  0.071932  0.032289      4.000000
  0.072131  0.071932  0.048434      4.000000
  0.086557  0.071932  0.064578      4.000000
 -0.043279  0.071932 -0.080723      4.000000
 -0.028852  0.071932 -0.064578      4.000000
 -0.014426  0.071932 -0.048434      4.000000
  0.000000  0.071932 -0.032289      2.000000
  0.057705  0.071932  0.000000      2.000000
  0.072131  0.071932  0.016145      4.000000
  0.086557  0.071932  0.032289      4.000000
  0.100984  0.071932  0.048434      4.000000
 -0.028852  0.071932 -0.096867      4.000000
 -0.014426  0.071932 -0.080723      4.000000
  0.000000  0.071932 -0.064578      2.000000
  0.086557  0.071932  0.000000      2.000000
  0.100984  0.071932  0.016145      4.000000
  0.115410  0.071932  0.032289      4.000000
 -0.014426  0.071932 -0.113012      4.000000
  0.000000  0.071932 -0.096867      2.000000
  0.115410  0.071932  0.000000      2.000000
  0.129836  0.071932  0.016145      4.000000
  0.000000  0.071932 -0.129156      2.000000
  0.144262  0.071932  0.000000      1.000000
 
 TETIRR: Found    900 inequivalent tetrahedra from     3600


--------------------------------------------------------------------------------------------------------




 Dimension of arrays:
   k-points           NKPTS =    124   k-points in BZ     NKDIM =    124   number of bands    NBANDS=     46
   number of dos      NEDOS =    301   number of ions     NIONS =     12
   non local maximal  LDIM  =      6   non local SUM 2l+1 LMDIM =     18
   total plane-waves  NPLWV =  31360
   max r-space proj   IRMAX =      1   max aug-charges    IRDMAX=   5456
   dimension x,y,z NGX =    28 NGY =   28 NGZ =   40
   dimension x,y,z NGXF=    40 NGYF=   40 NGZF=   56
   support grid    NGXF=    40 NGYF=   40 NGZF=   56
   ions per type =               2   8   2
 NGX,Y,Z   is equivalent  to a cutoff of  10.01, 10.01,  9.57 a.u.
 NGXF,Y,Z  is equivalent  to a cutoff of  14.31, 14.31, 13.39 a.u.


 I would recommend the setting:
   dimension x,y,z NGX =    26 NGY =   26 NGZ =   39
 SYSTEM =  unknown system                          
 POSCAR =  Ca S O                                  

 Startparameter for this run:
   NWRITE =      2    write-flag & timer
   PREC   = med       normal or accurate (medium, high low for compatibility)
   ISTART =      0    job   : 0-new  1-cont  2-samecut
   ICHARG =      1    charge: 1-file 2-atom 10-const
   ISPIN  =      1    spin polarized calculation?
   LNONCOLLINEAR =      F non collinear calculations
   LSORBIT =      F    spin-orbit coupling
   INIWAV =      1    electr: 0-lowe 1-rand  2-diag
   LASPH  =      F    aspherical Exc in radial PAW
   METAGGA=      F    non-selfconsistent MetaGGA calc.

 Electronic Relaxation 1
   ENCUT  =  520.0 eV  38.22 Ry    6.18 a.u.   8.64  8.64 12.92*2*pi/ulx,y,z
   ENINI  =  520.0     initial cutoff
   ENAUG  =  605.4 eV  augmentation charge cutoff
   NELM   =     60;   NELMIN=  5; NELMDL=  0     # of ELM steps 
   EDIFF  = 0.1E-03   stopping-criterion for ELM
   LREAL  =      F    real-space projection
   NLSPLINE    = F    spline interpolate recip. space projectors
   LCOMPAT=      F    compatible to vasp.4.4
   GGA_COMPAT  = T    GGA compatible to vasp.4.4-vasp.4.6
   LMAXPAW     = -100 max onsite density
   LMAXMIX     =    2 max onsite mixed and CHGCAR
   VOSKOWN=      0    Vosko Wilk Nusair interpolation
   ROPT   =    0.00000   0.00000   0.00000
 Ionic relaxation
   EDIFFG = 0.1E-02   stopping-criterion for IOM
   NSW    =      0    number of steps for IOM
   NBLOCK =      1;   KBLOCK =      1    inner block; outer block 
   IBRION =     -1    ionic relax: 0-MD 1-quasi-New 2-CG
   NFREE  =      0    steps in history (QN), initial steepest desc. (CG)
   ISIF   =      2    stress and relaxation
   IWAVPR =     10    prediction:  0-non 1-charg 2-wave 3-comb
   ISYM   =      2    0-nonsym 1-usesym 2-fastsym
   LCORR  =      T    Harris-Foulkes like correction to forces

   POTIM  = 0.5000    time-step for ionic-motion
   TEIN   =    0.0    initial temperature
   TEBEG  =    0.0;   TEEND  =   0.0 temperature during run
   SMASS  =  -3.00    Nose mass-parameter (am)
   estimated Nose-frequenzy (Omega)   =  0.10E-29 period in steps =****** mass=  -0.494E-27a.u.
   SCALEE = 1.0000    scale energy and forces
   NPACO  =    256;   APACO  = 16.0  distance and # of slots for P.C.
   PSTRESS=    0.0 pullay stress

  Mass of Ions in am
   POMASS =  40.08 16.00 32.07
  Ionic Valenz
   ZVAL   =   8.00  6.00  6.00
  Atomic Wigner-Seitz radii
   RWIGS  =  -1.00 -1.00 -1.00
  virtual crystal weights 
   VCA    =   1.00  1.00  1.00
   NELECT =      76.0000    total number of electrons
   NUPDOWN=      -1.0000    fix difference up-down

 DOS related values:
   EMIN   =  10.00;   EMAX   =-10.00  energy-range for DOS
   EFERMI =   0.00
   ISMEAR =    -5;   SIGMA  =   0.20  broadening in eV -4-tet -1-fermi 0-gaus

 Electronic relaxation 2 (details)
   IALGO  =     68    algorithm
   LDIAG  =      T    sub-space diagonalisation (order eigenvalues)
   LSUBROT=      T    optimize rotation matrix (better conditioning)
   TURBO    =      0    0=normal 1=particle mesh
   IRESTART =      0    0=no restart 2=restart with 2 vectors
   NREBOOT  =      0    no. of reboots
   NMIN     =      0    reboot dimension
   EREF     =   0.00    reference energy to select bands
   IMIX   =      4    mixing-type and parameters
     AMIX     =   0.40;   BMIX     =  1.00
     AMIX_MAG =   1.60;   BMIX_MAG =  1.00
     AMIN     =   0.10
     WC   =   100.;   INIMIX=   1;  MIXPRE=   1;  MAXMIX= -45

 Intra band minimization:
   WEIMIN = 0.0000     energy-eigenvalue tresh-hold
   EBREAK =  0.54E-06  absolut break condition
   DEPER  =   0.30     relativ break condition  

   TIME   =   0.40     timestep for ELM

  volume/ion in A,a.u.               =      12.44        83.92
  Fermi-wavevector in a.u.,A,eV,Ry     =   1.307375  2.470580 23.255468  1.709229
  Thomas-Fermi vector in A             =   2.438114
 
 Write flags
   LWAVE  =      F    write WAVECAR
   LCHARG =      T    write CHGCAR
   LVTOT  =      T    write LOCPOT, total local potential
   LVHAR  =      F    write LOCPOT, Hartree potential only
   LELF   =      T    write electronic localiz. function (ELF)
   LORBIT =     11    0 simple, 1 ext, 2 COOP (PROOUT)


 Dipole corrections
   LMONO  =      F    monopole corrections only (constant potential shift)
   LDIPOL =      F    correct potential (dipole corrections)
   IDIPOL =      0    1-x, 2-y, 3-z, 4-all directions 
   EPSILON=  1.0000000 bulk dielectric constant

 Exchange correlation treatment:
   GGA     =    --    GGA type
   LEXCH   =     8    internal setting for exchange type
   VOSKOWN=      0    Vosko Wilk Nusair interpolation
   LHFCALC =     F    Hartree Fock is set to
   LHFONE  =     F    Hartree Fock one center treatment
   AEXX    =    0.0000 exact exchange contribution

 Linear response parameters
   LEPSILON=     F    determine dielectric tensor
   LRPA    =     F    only Hartree local field effects (RPA)
   LNABLA  =     F    use nabla operator in PAW spheres
   LVEL    =     F    velocity operator in full k-point grid
   LINTERFAST=   F  fast interpolation
   KINTER  =     0    interpolate to denser k-point grid
   CSHIFT  =0.1000    complex shift for real part using Kramers Kronig
   OMEGAMAX=  -1.0    maximum frequency
   DEG_THRESHOLD= 0.2000000E-02 threshold for treating states as degnerate
   RTIME   =    0.100 relaxation time in fs

 Orbital magnetization related:
   ORBITALMAG=     F  switch on orbital magnetization
   LCHIMAG   =     F  perturbation theory with respect to B field
   DQ        =  0.001000  dq finite difference perturbation B field



--------------------------------------------------------------------------------------------------------


 Static calculation
 charge density and potential will be updated during run
 non-spin polarized calculation
 RMM-DIIS sequential band-by-band and
  variant of blocked Davidson during initial phase
 perform sub-space diagonalisation
    before iterative eigenvector-optimisation
 modified Broyden-mixing scheme, WC =      100.0
 initial mixing is a Kerker type mixing with AMIX =  0.4000 and BMIX =      1.0000
 Hartree-type preconditioning will be used
 using additional bands            8
 reciprocal scheme for non local part
 use partial core corrections
 calculate Harris-corrections to forces 
   (improved forces if not selfconsistent)
 use gradient corrections 
 use of overlap-Matrix (Vanderbilt PP)
 Fermi weights with tetrahedron method with Bloechl corrections


--------------------------------------------------------------------------------------------------------


  energy-cutoff  :      520.00
  volume of cell :      149.22
      direct lattice vectors                 reciprocal lattice vectors
     3.465906000  0.000000000  3.097020000     0.144262424  0.000000000  0.161445519
     3.465906000  0.000000000 -3.097020000     0.144262424  0.000000000 -0.161445519
     0.000000000  6.950996000  0.000000000     0.000000000  0.143864275  0.000000000

  length of vectors
     4.648014337  4.648014337  6.950996000     0.216509359  0.216509359  0.143864275


 
 k-points in units of 2pi/SCALE and weight: KPOINTS                                 
   0.00000000  0.00000000  0.00000000       0.002
   0.01442624  0.00000000  0.01614455       0.007
   0.02885248  0.00000000  0.03228910       0.007
   0.04327873  0.00000000  0.04843366       0.007
   0.05770497  0.00000000  0.06457821       0.007
   0.07213121  0.00000000  0.08072276       0.003
   0.02885248  0.00000000  0.00000000       0.003
   0.04327873  0.00000000  0.01614455       0.007
   0.05770497  0.00000000  0.03228910       0.007
   0.07213121  0.00000000  0.04843366       0.007
   0.08655745  0.00000000  0.06457821       0.007
  -0.04327873  0.00000000 -0.08072276       0.007
  -0.02885248  0.00000000 -0.06457821       0.007
  -0.01442624  0.00000000 -0.04843366       0.007
   0.00000000  0.00000000 -0.03228910       0.003
   0.05770497  0.00000000  0.00000000       0.003
   0.07213121  0.00000000  0.01614455       0.007
   0.08655745  0.00000000  0.03228910       0.007
   0.10098370  0.00000000  0.04843366       0.007
  -0.02885248  0.00000000 -0.09686731       0.007
  -0.01442624  0.00000000 -0.08072276       0.007
   0.00000000  0.00000000 -0.06457821       0.003
   0.08655745  0.00000000  0.00000000       0.003
   0.10098370  0.00000000  0.01614455       0.007
   0.11540994  0.00000000  0.03228910       0.007
  -0.01442624  0.00000000 -0.11301186       0.007
   0.00000000  0.00000000 -0.09686731       0.003
   0.11540994  0.00000000  0.00000000       0.003
   0.12983618  0.00000000  0.01614455       0.007
   0.00000000  0.00000000 -0.12915641       0.003
   0.14426242  0.00000000  0.00000000       0.002
   0.00000000  0.02397738  0.00000000       0.003
   0.01442624  0.02397738  0.01614455       0.013
   0.02885248  0.02397738  0.03228910       0.013
   0.04327873  0.02397738  0.04843366       0.013
   0.05770497  0.02397738  0.06457821       0.013
   0.07213121  0.02397738  0.08072276       0.007
   0.02885248  0.02397738  0.00000000       0.007
   0.04327873  0.02397738  0.01614455       0.013
   0.05770497  0.02397738  0.03228910       0.013
   0.07213121  0.02397738  0.04843366       0.013
   0.08655745  0.02397738  0.06457821       0.013
  -0.04327873  0.02397738 -0.08072276       0.013
  -0.02885248  0.02397738 -0.06457821       0.013
  -0.01442624  0.02397738 -0.04843366       0.013
   0.00000000  0.02397738 -0.03228910       0.007
   0.05770497  0.02397738  0.00000000       0.007
   0.07213121  0.02397738  0.01614455       0.013
   0.08655745  0.02397738  0.03228910       0.013
   0.10098370  0.02397738  0.04843366       0.013
  -0.02885248  0.02397738 -0.09686731       0.013
  -0.01442624  0.02397738 -0.08072276       0.013
   0.00000000  0.02397738 -0.06457821       0.007
   0.08655745  0.02397738  0.00000000       0.007
   0.10098370  0.02397738  0.01614455       0.013
   0.11540994  0.02397738  0.03228910       0.013
  -0.01442624  0.02397738 -0.11301186       0.013
   0.00000000  0.02397738 -0.09686731       0.007
   0.11540994  0.02397738  0.00000000       0.007
   0.12983618  0.02397738  0.01614455       0.013
   0.00000000  0.02397738 -0.12915641       0.007
   0.14426242  0.02397738  0.00000000       0.003
   0.00000000  0.04795476  0.00000000       0.003
   0.01442624  0.04795476  0.01614455       0.013
   0.02885248  0.04795476  0.03228910       0.013
   0.04327873  0.04795476  0.04843366       0.013
   0.05770497  0.04795476  0.06457821       0.013
   0.07213121  0.04795476  0.08072276       0.007
   0.02885248  0.04795476  0.00000000       0.007
   0.04327873  0.04795476  0.01614455       0.013
   0.05770497  0.04795476  0.03228910       0.013
   0.07213121  0.04795476  0.04843366       0.013
   0.08655745  0.04795476  0.06457821       0.013
  -0.04327873  0.04795476 -0.08072276       0.013
  -0.02885248  0.04795476 -0.06457821       0.013
  -0.01442624  0.04795476 -0.04843366       0.013
   0.00000000  0.04795476 -0.03228910       0.007
   0.05770497  0.04795476  0.00000000       0.007
   0.07213121  0.04795476  0.01614455       0.013
   0.08655745  0.04795476  0.03228910       0.013
   0.10098370  0.04795476  0.04843366       0.013
  -0.02885248  0.04795476 -0.09686731       0.013
  -0.01442624  0.04795476 -0.08072276       0.013
   0.00000000  0.04795476 -0.06457821       0.007
   0.08655745  0.04795476  0.00000000       0.007
   0.10098370  0.04795476  0.01614455       0.013
   0.11540994  0.04795476  0.03228910       0.013
  -0.01442624  0.04795476 -0.11301186       0.013
   0.00000000  0.04795476 -0.09686731       0.007
   0.11540994  0.04795476  0.00000000       0.007
   0.12983618  0.04795476  0.01614455       0.013
   0.00000000  0.04795476 -0.12915641       0.007
   0.14426242  0.04795476  0.00000000       0.003
   0.00000000  0.07193214  0.00000000       0.002
   0.01442624  0.07193214  0.01614455       0.007
   0.02885248  0.07193214  0.03228910       0.007
   0.04327873  0.07193214  0.04843366       0.007
   0.05770497  0.07193214  0.06457821       0.007
   0.07213121  0.07193214  0.08072276       0.003
   0.02885248  0.07193214  0.00000000       0.003
   0.04327873  0.07193214  0.01614455       0.007
   0.05770497  0.07193214  0.03228910       0.007
   0.07213121  0.07193214  0.04843366       0.007
   0.08655745  0.07193214  0.06457821       0.007
  -0.04327873  0.07193214 -0.08072276       0.007
  -0.02885248  0.07193214 -0.06457821       0.007
  -0.01442624  0.07193214 -0.04843366       0.007
   0.00000000  0.07193214 -0.03228910       0.003
   0.05770497  0.07193214  0.00000000       0.003
   0.07213121  0.07193214  0.01614455       0.007
   0.08655745  0.07193214  0.03228910       0.007
   0.10098370  0.07193214  0.04843366       0.007
  -0.02885248  0.07193214 -0.09686731       0.007
  -0.01442624  0.07193214 -0.08072276       0.007
   0.00000000  0.07193214 -0.06457821       0.003
   0.08655745  0.07193214  0.00000000       0.003
   0.10098370  0.07193214  0.01614455       0.007
   0.11540994  0.07193214  0.03228910       0.007
  -0.01442624  0.07193214 -0.11301186       0.007
   0.00000000  0.07193214 -0.09686731       0.003
   0.11540994  0.07193214  0.00000000       0.003
   0.12983618  0.07193214  0.01614455       0.007
   0.00000000  0.07193214 -0.12915641       0.003
   0.14426242  0.07193214  0.00000000       0.002
 
 k-points in reciprocal lattice and weights: KPOINTS                                 
   0.00000000  0.00000000  0.00000000       0.002
   0.10000000  0.00000000  0.00000000       0.007
   0.20000000  0.00000000  0.00000000       0.007
   0.30000000  0.00000000  0.00000000       0.007
   0.40000000  0.00000000  0.00000000       0.007
   0.50000000  0.00000000  0.00000000       0.003
   0.10000000  0.10000000  0.00000000       0.003
   0.20000000  0.10000000  0.00000000       0.007
   0.30000000  0.10000000  0.00000000       0.007
   0.40000000  0.10000000  0.00000000       0.007
   0.50000000  0.10000000  0.00000000       0.007
  -0.40000000  0.10000000  0.00000000       0.007
  -0.30000000  0.10000000  0.00000000       0.007
  -0.20000000  0.10000000  0.00000000       0.007
  -0.10000000  0.10000000  0.00000000       0.003
   0.20000000  0.20000000  0.00000000       0.003
   0.30000000  0.20000000  0.00000000       0.007
   0.40000000  0.20000000  0.00000000       0.007
   0.50000000  0.20000000  0.00000000       0.007
  -0.40000000  0.20000000  0.00000000       0.007
  -0.30000000  0.20000000  0.00000000       0.007
  -0.20000000  0.20000000  0.00000000       0.003
   0.30000000  0.30000000  0.00000000       0.003
   0.40000000  0.30000000  0.00000000       0.007
   0.50000000  0.30000000  0.00000000       0.007
  -0.40000000  0.30000000  0.00000000       0.007
  -0.30000000  0.30000000  0.00000000       0.003
   0.40000000  0.40000000  0.00000000       0.003
   0.50000000  0.40000000  0.00000000       0.007
  -0.40000000  0.40000000  0.00000000       0.003
   0.50000000  0.50000000  0.00000000       0.002
   0.00000000  0.00000000  0.16666667       0.003
   0.10000000  0.00000000  0.16666667       0.013
   0.20000000  0.00000000  0.16666667       0.013
   0.30000000  0.00000000  0.16666667       0.013
   0.40000000  0.00000000  0.16666667       0.013
   0.50000000  0.00000000  0.16666667       0.007
   0.10000000  0.10000000  0.16666667       0.007
   0.20000000  0.10000000  0.16666667       0.013
   0.30000000  0.10000000  0.16666667       0.013
   0.40000000  0.10000000  0.16666667       0.013
   0.50000000  0.10000000  0.16666667       0.013
  -0.40000000  0.10000000  0.16666667       0.013
  -0.30000000  0.10000000  0.16666667       0.013
  -0.20000000  0.10000000  0.16666667       0.013
  -0.10000000  0.10000000  0.16666667       0.007
   0.20000000  0.20000000  0.16666667       0.007
   0.30000000  0.20000000  0.16666667       0.013
   0.40000000  0.20000000  0.16666667       0.013
   0.50000000  0.20000000  0.16666667       0.013
  -0.40000000  0.20000000  0.16666667       0.013
  -0.30000000  0.20000000  0.16666667       0.013
  -0.20000000  0.20000000  0.16666667       0.007
   0.30000000  0.30000000  0.16666667       0.007
   0.40000000  0.30000000  0.16666667       0.013
   0.50000000  0.30000000  0.16666667       0.013
  -0.40000000  0.30000000  0.16666667       0.013
  -0.30000000  0.30000000  0.16666667       0.007
   0.40000000  0.40000000  0.16666667       0.007
   0.50000000  0.40000000  0.16666667       0.013
  -0.40000000  0.40000000  0.16666667       0.007
   0.50000000  0.50000000  0.16666667       0.003
   0.00000000  0.00000000  0.33333333       0.003
   0.10000000  0.00000000  0.33333333       0.013
   0.20000000  0.00000000  0.33333333       0.013
   0.30000000  0.00000000  0.33333333       0.013
   0.40000000  0.00000000  0.33333333       0.013
   0.50000000  0.00000000  0.33333333       0.007
   0.10000000  0.10000000  0.33333333       0.007
   0.20000000  0.10000000  0.33333333       0.013
   0.30000000  0.10000000  0.33333333       0.013
   0.40000000  0.10000000  0.33333333       0.013
   0.50000000  0.10000000  0.33333333       0.013
  -0.40000000  0.10000000  0.33333333       0.013
  -0.30000000  0.10000000  0.33333333       0.013
  -0.20000000  0.10000000  0.33333333       0.013
  -0.10000000  0.10000000  0.33333333       0.007
   0.20000000  0.20000000  0.33333333       0.007
   0.30000000  0.20000000  0.33333333       0.013
   0.40000000  0.20000000  0.33333333       0.013
   0.50000000  0.20000000  0.33333333       0.013
  -0.40000000  0.20000000  0.33333333       0.013
  -0.30000000  0.20000000  0.33333333       0.013
  -0.20000000  0.20000000  0.33333333       0.007
   0.30000000  0.30000000  0.33333333       0.007
   0.40000000  0.30000000  0.33333333       0.013
   0.50000000  0.30000000  0.33333333       0.013
  -0.40000000  0.30000000  0.33333333       0.013
  -0.30000000  0.30000000  0.33333333       0.007
   0.40000000  0.40000000  0.33333333       0.007
   0.50000000  0.40000000  0.33333333       0.013
  -0.40000000  0.40000000  0.33333333       0.007
   0.50000000  0.50000000  0.33333333       0.003
   0.00000000  0.00000000  0.50000000       0.002
   0.10000000  0.00000000  0.50000000       0.007
   0.20000000  0.00000000  0.50000000       0.007
   0.30000000  0.00000000  0.50000000       0.007
   0.40000000  0.00000000  0.50000000       0.007
   0.50000000  0.00000000  0.50000000       0.003
   0.10000000  0.10000000  0.50000000       0.003
   0.20000000  0.10000000  0.50000000       0.007
   0.30000000  0.10000000  0.50000000       0.007
   0.40000000  0.10000000  0.50000000       0.007
   0.50000000  0.10000000  0.50000000       0.007
  -0.40000000  0.10000000  0.50000000       0.007
  -0.30000000  0.10000000  0.50000000       0.007
  -0.20000000  0.10000000  0.50000000       0.007
  -0.10000000  0.10000000  0.50000000       0.003
   0.20000000  0.20000000  0.50000000       0.003
   0.30000000  0.20000000  0.50000000       0.007
   0.40000000  0.20000000  0.50000000       0.007
   0.50000000  0.20000000  0.50000000       0.007
  -0.40000000  0.20000000  0.50000000       0.007
  -0.30000000  0.20000000  0.50000000       0.007
  -0.20000000  0.20000000  0.50000000       0.003
   0.30000000  0.30000000  0.50000000       0.003
   0.40000000  0.30000000  0.50000000       0.007
   0.50000000  0.30000000  0.50000000       0.007
  -0.40000000  0.30000000  0.50000000       0.007
  -0.30000000  0.30000000  0.50000000       0.003
   0.40000000  0.40000000  0.50000000       0.003
   0.50000000  0.40000000  0.50000000       0.007
  -0.40000000  0.40000000  0.50000000       0.003
   0.50000000  0.50000000  0.50000000       0.002
 
 position of ions in fractional coordinates (direct lattice) 
   0.34810133  0.65189981  0.25000013
   0.65189981  0.34810133  0.75000039
   0.70071770  0.29928344  0.07947925
   0.15911045  0.18555845  0.25000013
   0.81444125  0.84088925  0.25000013
   0.70071770  0.29928344  0.42052101
   0.29928344  0.70071770  0.57947951
   0.18555845  0.15911045  0.75000039
   0.84088925  0.81444125  0.75000039
   0.29928344  0.70071770  0.92051983
   0.84487724  0.15512390  0.25000013
   0.15512390  0.84487724  0.75000039
 
 position of ions in cartesian coordinates  (Angst):
   3.46590996  1.73774990 -0.94086995
   3.46590996  5.21324970  0.94086995
   3.46590996  0.55245997  1.24324993
   1.19458999  1.73774990 -0.08191000
   5.73721993  1.73774990 -0.08191000
   3.46590996  2.92303983  1.24324993
   3.46590996  4.02795977 -1.24324993
   1.19458999  5.21324970  0.08191000
   5.73721993  5.21324970  0.08191000
   3.46590996  6.39852963 -1.24324993
   3.46590996  1.73774990  2.13617988
   3.46590996  5.21324970 -2.13617988
 


--------------------------------------------------------------------------------------------------------


 k-point  1 :   0.0000 0.0000 0.0000  plane waves:    4047
 k-point  2 :   0.1000 0.0000 0.0000  plane waves:    4032
 k-point  3 :   0.2000 0.0000 0.0000  plane waves:    4021
 k-point  4 :   0.3000 0.0000 0.0000  plane waves:    4011
 k-point  5 :   0.4000 0.0000 0.0000  plane waves:    4020
 k-point  6 :   0.5000 0.0000 0.0000  plane waves:    4014
 k-point  7 :   0.1000 0.1000 0.0000  plane waves:    4061
 k-point  8 :   0.2000 0.1000 0.0000  plane waves:    4034
 k-point  9 :   0.3000 0.1000 0.0000  plane waves:    4023
 k-point 10 :   0.4000 0.1000 0.0000  plane waves:    4012
 k-point 11 :   0.5000 0.1000 0.0000  plane waves:    4015
 k-point 12 :  -0.4000 0.1000 0.0000  plane waves:    4015
 k-point 13 :  -0.3000 0.1000 0.0000  plane waves:    4012
 k-point 14 :  -0.2000 0.1000 0.0000  plane waves:    4010
 k-point 15 :  -0.1000 0.1000 0.0000  plane waves:    4031
 k-point 16 :   0.2000 0.2000 0.0000  plane waves:    4033
 k-point 17 :   0.3000 0.2000 0.0000  plane waves:    4023
 k-point 18 :   0.4000 0.2000 0.0000  plane waves:    4008
 k-point 19 :   0.5000 0.2000 0.0000  plane waves:    4010
 k-point 20 :  -0.4000 0.2000 0.0000  plane waves:    4006
 k-point 21 :  -0.3000 0.2000 0.0000  plane waves:    4006
 k-point 22 :  -0.2000 0.2000 0.0000  plane waves:    3989
 k-point 23 :   0.3000 0.3000 0.0000  plane waves:    4011
 k-point 24 :   0.4000 0.3000 0.0000  plane waves:    4003
 k-point 25 :   0.5000 0.3000 0.0000  plane waves:    4003
 k-point 26 :  -0.4000 0.3000 0.0000  plane waves:    3995
 k-point 27 :  -0.3000 0.3000 0.0000  plane waves:    4014
 k-point 28 :   0.4000 0.4000 0.0000  plane waves:    4007
 k-point 29 :   0.5000 0.4000 0.0000  plane waves:    4000
 k-point 30 :  -0.4000 0.4000 0.0000  plane waves:    4014
 k-point 31 :   0.5000 0.5000 0.0000  plane waves:    3996
 k-point 32 :   0.0000 0.0000 0.1667  plane waves:    4044
 k-point 33 :   0.1000 0.0000 0.1667  plane waves:    4035
 k-point 34 :   0.2000 0.0000 0.1667  plane waves:    4026
 k-point 35 :   0.3000 0.0000 0.1667  plane waves:    4018
 k-point 36 :   0.4000 0.0000 0.1667  plane waves:    4010
 k-point 37 :   0.5000 0.0000 0.1667  plane waves:    4004
 k-point 38 :   0.1000 0.1000 0.1667  plane waves:    4038
 k-point 39 :   0.2000 0.1000 0.1667  plane waves:    4039
 k-point 40 :   0.3000 0.1000 0.1667  plane waves:    4020
 k-point 41 :   0.4000 0.1000 0.1667  plane waves:    4016
 k-point 42 :   0.5000 0.1000 0.1667  plane waves:    4012
 k-point 43 :  -0.4000 0.1000 0.1667  plane waves:    4001
 k-point 44 :  -0.3000 0.1000 0.1667  plane waves:    4013
 k-point 45 :  -0.2000 0.1000 0.1667  plane waves:    4012
 k-point 46 :  -0.1000 0.1000 0.1667  plane waves:    4017
 k-point 47 :   0.2000 0.2000 0.1667  plane waves:    4027
 k-point 48 :   0.3000 0.2000 0.1667  plane waves:    4016
 k-point 49 :   0.4000 0.2000 0.1667  plane waves:    4016
 k-point 50 :   0.5000 0.2000 0.1667  plane waves:    4028
 k-point 51 :  -0.4000 0.2000 0.1667  plane waves:    4010
 k-point 52 :  -0.3000 0.2000 0.1667  plane waves:    4015
 k-point 53 :  -0.2000 0.2000 0.1667  plane waves:    4011
 k-point 54 :   0.3000 0.3000 0.1667  plane waves:    4015
 k-point 55 :   0.4000 0.3000 0.1667  plane waves:    4009
 k-point 56 :   0.5000 0.3000 0.1667  plane waves:    4009
 k-point 57 :  -0.4000 0.3000 0.1667  plane waves:    4006
 k-point 58 :  -0.3000 0.3000 0.1667  plane waves:    4007
 k-point 59 :   0.4000 0.4000 0.1667  plane waves:    4005
 k-point 60 :   0.5000 0.4000 0.1667  plane waves:    4010
 k-point 61 :  -0.4000 0.4000 0.1667  plane waves:    4008
 k-point 62 :   0.5000 0.5000 0.1667  plane waves:    4006
 k-point 63 :   0.0000 0.0000 0.3333  plane waves:    4030
 k-point 64 :   0.1000 0.0000 0.3333  plane waves:    4024
 k-point 65 :   0.2000 0.0000 0.3333  plane waves:    4023
 k-point 66 :   0.3000 0.0000 0.3333  plane waves:    4024
 k-point 67 :   0.4000 0.0000 0.3333  plane waves:    4015
 k-point 68 :   0.5000 0.0000 0.3333  plane waves:    4022
 k-point 69 :   0.1000 0.1000 0.3333  plane waves:    4025
 k-point 70 :   0.2000 0.1000 0.3333  plane waves:    4028
 k-point 71 :   0.3000 0.1000 0.3333  plane waves:    4019
 k-point 72 :   0.4000 0.1000 0.3333  plane waves:    4024
 k-point 73 :   0.5000 0.1000 0.3333  plane waves:    4023
 k-point 74 :  -0.4000 0.1000 0.3333  plane waves:    4008
 k-point 75 :  -0.3000 0.1000 0.3333  plane waves:    4019
 k-point 76 :  -0.2000 0.1000 0.3333  plane waves:    4021
 k-point 77 :  -0.1000 0.1000 0.3333  plane waves:    4021
 k-point 78 :   0.2000 0.2000 0.3333  plane waves:    4021
 k-point 79 :   0.3000 0.2000 0.3333  plane waves:    4026
 k-point 80 :   0.4000 0.2000 0.3333  plane waves:    4026
 k-point 81 :   0.5000 0.2000 0.3333  plane waves:    4020
 k-point 82 :  -0.4000 0.2000 0.3333  plane waves:    4013
 k-point 83 :  -0.3000 0.2000 0.3333  plane waves:    4007
 k-point 84 :  -0.2000 0.2000 0.3333  plane waves:    4016
 k-point 85 :   0.3000 0.3000 0.3333  plane waves:    4023
 k-point 86 :   0.4000 0.3000 0.3333  plane waves:    4017
 k-point 87 :   0.5000 0.3000 0.3333  plane waves:    4022
 k-point 88 :  -0.4000 0.3000 0.3333  plane waves:    4024
 k-point 89 :  -0.3000 0.3000 0.3333  plane waves:    4014
 k-point 90 :   0.4000 0.4000 0.3333  plane waves:    4023
 k-point 91 :   0.5000 0.4000 0.3333  plane waves:    4020
 k-point 92 :  -0.4000 0.4000 0.3333  plane waves:    4012
 k-point 93 :   0.5000 0.5000 0.3333  plane waves:    4006
 k-point 94 :   0.0000 0.0000 0.5000  plane waves:    4026
 k-point 95 :   0.1000 0.0000 0.5000  plane waves:    4020
 k-point 96 :   0.2000 0.0000 0.5000  plane waves:    4030
 k-point 97 :   0.3000 0.0000 0.5000  plane waves:    4020
 k-point 98 :   0.4000 0.0000 0.5000  plane waves:    4012
 k-point 99 :   0.5000 0.0000 0.5000  plane waves:    4012
 k-point ** :   0.1000 0.1000 0.5000  plane waves:    4022
 k-point ** :   0.2000 0.1000 0.5000  plane waves:    4012
 k-point ** :   0.3000 0.1000 0.5000  plane waves:    4028
 k-point ** :   0.4000 0.1000 0.5000  plane waves:    4022
 k-point ** :   0.5000 0.1000 0.5000  plane waves:    4012
 k-point ** :  -0.4000 0.1000 0.5000  plane waves:    4024
 k-point ** :  -0.3000 0.1000 0.5000  plane waves:    4024
 k-point ** :  -0.2000 0.1000 0.5000  plane waves:    4024
 k-point ** :  -0.1000 0.1000 0.5000  plane waves:    4002
 k-point ** :   0.2000 0.2000 0.5000  plane waves:    4034
 k-point ** :   0.3000 0.2000 0.5000  plane waves:    4024
 k-point ** :   0.4000 0.2000 0.5000  plane waves:    4024
 k-point ** :   0.5000 0.2000 0.5000  plane waves:    4014
 k-point ** :  -0.4000 0.2000 0.5000  plane waves:    4026
 k-point ** :  -0.3000 0.2000 0.5000  plane waves:    4010
 k-point ** :  -0.2000 0.2000 0.5000  plane waves:    4034
 k-point ** :   0.3000 0.3000 0.5000  plane waves:    4044
 k-point ** :   0.4000 0.3000 0.5000  plane waves:    4024
 k-point ** :   0.5000 0.3000 0.5000  plane waves:    4014
 k-point ** :  -0.4000 0.3000 0.5000  plane waves:    4016
 k-point ** :  -0.3000 0.3000 0.5000  plane waves:    4008
 k-point ** :   0.4000 0.4000 0.5000  plane waves:    4018
 k-point ** :   0.5000 0.4000 0.5000  plane waves:    4020
 k-point ** :  -0.4000 0.4000 0.5000  plane waves:    4032
 k-point ** :   0.5000 0.5000 0.5000  plane waves:    3992

 maximum and minimum number of plane-waves per node :      1025      982

 maximum number of plane-waves:      4061
 maximum index in each direction: 
   IXMAX=    9   IYMAX=    8   IZMAX=   12
   IXMIN=   -9   IYMIN=   -9   IZMIN=  -13

 WARNING: aliasing errors must be expected set NGX to  38 to avoid them
 WARNING: aliasing errors must be expected set NGY to  36 to avoid them
 WARNING: aliasing errors must be expected set NGZ to  52 to avoid them
 aliasing errors are usually negligible using standard VASP settings
 and one can safely disregard these warnings

 parallel 3D FFT for wavefunctions:
    minimum data exchange during FFTs selected (reduces bandwidth)
 parallel 3D FFT for charge:
    minimum data exchange during FFTs selected (reduces bandwidth)


 total amount of memory used by VASP on root node   135283. kBytes
========================================================================

   base      :      30000. kBytes
   nonl-proj :      55157. kBytes
   fftplans  :        659. kBytes
   grid      :       1052. kBytes
   one-center:         46. kBytes
   wavefun   :      48369. kBytes
 
 Broyden mixing: mesh for mixing (old mesh)
   NGX = 17   NGY = 17   NGZ = 25
  (NGX  = 40   NGY  = 40   NGZ  = 56)
  gives a total of   7225 points

 initial charge density was supplied:
 charge density of overlapping atoms calculated
 number of electron      76.0000000 magnetization 
 keeping initial charge density in first step


--------------------------------------------------------------------------------------------------------


 Maximum index for augmentation-charges          634 (set IRDMAX)


--------------------------------------------------------------------------------------------------------


 First call to EWALD:  gamma=   0.334
 Maximum number of real-space cells 3x 3x 2
 Maximum number of reciprocal cells 2x 2x 3

 FEWALD executed in parallel
    FEWALD:  cpu time    0.00: real time    0.00


----------------------------------------- Iteration    1(   1)  ---------------------------------------


    POTLOK:  cpu time    0.02: real time    0.02
    SETDIJ:  cpu time    0.01: real time    0.01
     EDDAV:  cpu time   16.11: real time   16.11
 BZINTS: Fermi energy: 25.460183; 76.000000 electrons
         Band energy: 614.044827;  BLOECHL correction: -0.456150
       DOS:  cpu time    0.18: real time    0.19
    --------------------------------------------
      LOOP:  cpu time   16.32: real time   16.32

 eigenvalue-minimisations  : 13314
 total energy-change (2. order) : 0.1215055E+04  (-0.3146185E+04)
 number of electron      76.0000000 magnetization 
 augmentation part       76.0000000 magnetization 

 Free energy of the ion-electron system (eV)
  ---------------------------------------------------
  alpha Z        PSCENC =       214.06412575
  Ewald energy   TEWEN  =     -3718.62007479
  -1/2 Hartree   DENC   =     -1411.48425425
  -exchange  EXHF       =         0.00000000
  -V(xc)+E(xc)   XCENC  =       284.37145464
  PAW double counting   =      2914.20270734    -2919.09512924
  entropy T*S    EENTRO =         0.00000000
  eigenvalues    EBANDS =       614.04482660
  atomic energy  EATOM  =      5237.57178511
  ---------------------------------------------------
  free energy    TOTEN  =      1215.05544116 eV

  energy without entropy =     1215.05544116  energy(sigma->0) =     1215.05544116


--------------------------------------------------------------------------------------------------------




----------------------------------------- Iteration    1(   2)  ---------------------------------------


     EDDAV:  cpu time   16.16: real time   16.17
 BZINTS: Fermi energy: 11.599881; 76.000000 electrons
         Band energy:-358.918252;  BLOECHL correction: -0.147489
       DOS:  cpu time    0.18: real time    0.18
    --------------------------------------------
      LOOP:  cpu time   16.35: real time   16.35

 eigenvalue-minimisations  : 13368
 total energy-change (2. order) :-0.9729631E+03  (-0.9169729E+03)
 number of electron      76.0000000 magnetization 
 augmentation part       76.0000000 magnetization 

 Free energy of the ion-electron system (eV)
  ---------------------------------------------------
  alpha Z        PSCENC =       214.06412575
  Ewald energy   TEWEN  =     -3718.62007479
  -1/2 Hartree   DENC   =     -1411.48425425
  -exchange  EXHF       =         0.00000000
  -V(xc)+E(xc)   XCENC  =       284.37145464
  PAW double counting   =      2914.20270734    -2919.09512924
  entropy T*S    EENTRO =         0.00000000
  eigenvalues    EBANDS =      -358.91825202
  atomic energy  EATOM  =      5237.57178511
  ---------------------------------------------------
  free energy    TOTEN  =       242.09236254 eV

  energy without entropy =      242.09236254  energy(sigma->0) =      242.09236254


--------------------------------------------------------------------------------------------------------




----------------------------------------- Iteration    1(   3)  ---------------------------------------


     EDDAV:  cpu time   17.85: real time   17.92
 BZINTS: Fermi energy:  4.801372; 76.000000 electrons
         Band energy:-657.171459;  BLOECHL correction:  0.000000
       DOS:  cpu time    0.10: real time    0.10
    --------------------------------------------
      LOOP:  cpu time   17.95: real time   18.03

 eigenvalue-minimisations  : 14732
 total energy-change (2. order) :-0.2982532E+03  (-0.2883073E+03)
 number of electron      76.0000000 magnetization 
 augmentation part       76.0000000 magnetization 

 Free energy of the ion-electron system (eV)
  ---------------------------------------------------
  alpha Z        PSCENC =       214.06412575
  Ewald energy   TEWEN  =     -3718.62007479
  -1/2 Hartree   DENC   =     -1411.48425425
  -exchange  EXHF       =         0.00000000
  -V(xc)+E(xc)   XCENC  =       284.37145464
  PAW double counting   =      2914.20270734    -2919.09512924
  entropy T*S    EENTRO =         0.00000000
  eigenvalues    EBANDS =      -657.17145933
  atomic energy  EATOM  =      5237.57178511
  ---------------------------------------------------
  free energy    TOTEN  =       -56.16084477 eV

  energy without entropy =      -56.16084477  energy(sigma->0) =      -56.16084477


--------------------------------------------------------------------------------------------------------




----------------------------------------- Iteration    1(   4)  ---------------------------------------


     EDDAV:  cpu time   19.06: real time   19.08
 BZINTS: Fermi energy: -0.477894; 76.000000 electrons
         Band energy:-688.895830;  BLOECHL correction:  0.000000
       DOS:  cpu time    0.05: real time    0.05
    --------------------------------------------
      LOOP:  cpu time   19.11: real time   19.13

 eigenvalue-minimisations  : 16152
 total energy-change (2. order) :-0.3172437E+02  (-0.3162285E+02)
 number of electron      76.0000000 magnetization 
 augmentation part       76.0000000 magnetization 

 Free energy of the ion-electron system (eV)
  ---------------------------------------------------
  alpha Z        PSCENC =       214.06412575
  Ewald energy   TEWEN  =     -3718.62007479
  -1/2 Hartree   DENC   =     -1411.48425425
  -exchange  EXHF       =         0.00000000
  -V(xc)+E(xc)   XCENC  =       284.37145464
  PAW double counting   =      2914.20270734    -2919.09512924
  entropy T*S    EENTRO =         0.00000000
  eigenvalues    EBANDS =      -688.89583038
  atomic energy  EATOM  =      5237.57178511
  ---------------------------------------------------
  free energy    TOTEN  =       -87.88521582 eV

  energy without entropy =      -87.88521582  energy(sigma->0) =      -87.88521582


--------------------------------------------------------------------------------------------------------




----------------------------------------- Iteration    1(   5)  ---------------------------------------


     EDDAV:  cpu time   22.82: real time   23.32
 BZINTS: Fermi energy: -0.579033; 76.000000 electrons
         Band energy:-690.035744;  BLOECHL correction:  0.000000
       DOS:  cpu time    0.04: real time    0.04
    CHARGE:  cpu time    0.62: real time    0.62
    MIXING:  cpu time    0.00: real time    0.00
    --------------------------------------------
      LOOP:  cpu time   23.48: real time   23.99

 eigenvalue-minimisations  : 18786
 total energy-change (2. order) :-0.1139914E+01  (-0.1138324E+01)
 number of electron      76.0000335 magnetization 
 augmentation part       14.1779846 magnetization 

 Broyden mixing:
  rms(total) = 0.20219E+01    rms(broyden)= 0.20205E+01
  rms(prec ) = 0.32143E+01
  weight for this iteration     100.00

 Free energy of the ion-electron system (eV)
  ---------------------------------------------------
  alpha Z        PSCENC =       214.06412575
  Ewald energy   TEWEN  =     -3718.62007479
  -1/2 Hartree   DENC   =     -1411.48425425
  -exchange  EXHF       =         0.00000000
  -V(xc)+E(xc)   XCENC  =       284.37145464
  PAW double counting   =      2914.20270734    -2919.09512924
  entropy T*S    EENTRO =         0.00000000
  eigenvalues    EBANDS =      -690.03574400
  atomic energy  EATOM  =      5237.57178511
  ---------------------------------------------------
  free energy    TOTEN  =       -89.02512944 eV

  energy without entropy =      -89.02512944  energy(sigma->0) =      -89.02512944


--------------------------------------------------------------------------------------------------------




----------------------------------------- Iteration    1(   6)  ---------------------------------------


    POTLOK:  cpu time    0.02: real time    0.02
    SETDIJ:  cpu time    0.01: real time    0.01
    EDDIAG:  cpu time    2.18: real time    2.18
  RMM-DIIS:  cpu time   17.96: real time   17.96
    ORTHCH:  cpu time    0.47: real time    0.47
 BZINTS: Fermi energy:  1.647754; 76.000000 electrons
         Band energy:-589.270839;  BLOECHL correction:  0.000000
       DOS:  cpu time    0.05: real time    0.05
    CHARGE:  cpu time    0.76: real time    0.82
    MIXING:  cpu time    0.00: real time    0.00
    --------------------------------------------
      LOOP:  cpu time   21.44: real time   21.51

 eigenvalue-minimisations  : 20762
 total energy-change (2. order) : 0.1097774E+02  (-0.6009177E+01)
 number of electron      76.0000293 magnetization 
 augmentation part       13.1877736 magnetization 

 Broyden mixing:
  rms(total) = 0.58620E+00    rms(broyden)= 0.58557E+00
  rms(prec ) = 0.77669E+00
  weight for this iteration     100.00

 eigenvalues of (default mixing * dielectric matrix)
  average eigenvalue GAMMA=   1.0160
  1.0160

 Free energy of the ion-electron system (eV)
  ---------------------------------------------------
  alpha Z        PSCENC =       214.06412575
  Ewald energy   TEWEN  =     -3718.62007479
  -1/2 Hartree   DENC   =     -1508.28433594
  -exchange  EXHF       =         0.00000000
  -V(xc)+E(xc)   XCENC  =       291.89714550
  PAW double counting   =      3269.59828454    -3275.00347551
  entropy T*S    EENTRO =         0.00000000
  eigenvalues    EBANDS =      -589.27083937
  atomic energy  EATOM  =      5237.57178511
  ---------------------------------------------------
  free energy    TOTEN  =       -78.04738471 eV

  energy without entropy =      -78.04738471  energy(sigma->0) =      -78.04738471


--------------------------------------------------------------------------------------------------------




----------------------------------------- Iteration    1(   7)  ---------------------------------------


    POTLOK:  cpu time    0.01: real time    0.01
    SETDIJ:  cpu time    0.01: real time    0.01
    EDDIAG:  cpu time    2.18: real time    2.18
  RMM-DIIS:  cpu time   17.65: real time   17.76
    ORTHCH:  cpu time    0.46: real time    0.46
 BZINTS: Fermi energy:  1.861931; 76.000000 electrons
         Band energy:-579.643613;  BLOECHL correction:  0.000000
       DOS:  cpu time    0.05: real time    0.05
    CHARGE:  cpu time    0.61: real time    0.61
    MIXING:  cpu time    0.00: real time    0.00
    --------------------------------------------
      LOOP:  cpu time   20.98: real time   21.09

 eigenvalue-minimisations  : 20575
 total energy-change (2. order) :-0.2596014E+00  (-0.4476108E+00)
 number of electron      76.0000286 magnetization 
 augmentation part       12.9738993 magnetization 

 Broyden mixing:
  rms(total) = 0.38506E+00    rms(broyden)= 0.38496E+00
  rms(prec ) = 0.47938E+00
  weight for this iteration     100.00

 eigenvalues of (default mixing * dielectric matrix)
  average eigenvalue GAMMA=   1.6256
  1.2047  2.0464

 Free energy of the ion-electron system (eV)
  ---------------------------------------------------
  alpha Z        PSCENC =       214.06412575
  Ewald energy   TEWEN  =     -3718.62007479
  -1/2 Hartree   DENC   =     -1520.27103907
  -exchange  EXHF       =         0.00000000
  -V(xc)+E(xc)   XCENC  =       292.92051176
  PAW double counting   =      3392.85941314    -3397.18809500
  entropy T*S    EENTRO =         0.00000000
  eigenvalues    EBANDS =      -579.64361299
  atomic energy  EATOM  =      5237.57178511
  ---------------------------------------------------
  free energy    TOTEN  =       -78.30698609 eV

  energy without entropy =      -78.30698609  energy(sigma->0) =      -78.30698609


--------------------------------------------------------------------------------------------------------




----------------------------------------- Iteration    1(   8)  ---------------------------------------


    POTLOK:  cpu time    0.31: real time    0.31
    SETDIJ:  cpu time    0.01: real time    0.01
    EDDIAG:  cpu time    2.16: real time    2.17
  RMM-DIIS:  cpu time   17.35: real time   17.36
    ORTHCH:  cpu time    0.46: real time    0.46
 BZINTS: Fermi energy:  1.741371; 76.000000 electrons
         Band energy:-579.947772;  BLOECHL correction:  0.000000
       DOS:  cpu time    0.05: real time    0.05
    CHARGE:  cpu time    0.62: real time    0.62
    MIXING:  cpu time    0.00: real time    0.00
    --------------------------------------------
      LOOP:  cpu time   20.95: real time   20.97

 eigenvalue-minimisations  : 20167
 total energy-change (2. order) : 0.2681997E-01  (-0.6407330E-01)
 number of electron      76.0000288 magnetization 
 augmentation part       13.0117106 magnetization 

 Broyden mixing:
  rms(total) = 0.90979E-01    rms(broyden)= 0.90968E-01
  rms(prec ) = 0.13614E+00
  weight for this iteration     100.00

 eigenvalues of (default mixing * dielectric matrix)
  average eigenvalue GAMMA=   1.5456
  2.4689  1.0840  1.0840

 Free energy of the ion-electron system (eV)
  ---------------------------------------------------
  alpha Z        PSCENC =       214.06412575
  Ewald energy   TEWEN  =     -3718.62007479
  -1/2 Hartree   DENC   =     -1521.27856789
  -exchange  EXHF       =         0.00000000
  -V(xc)+E(xc)   XCENC  =       292.94339319
  PAW double counting   =      3476.64170604    -3479.65476122
  entropy T*S    EENTRO =         0.00000000
  eigenvalues    EBANDS =      -579.94777232
  atomic energy  EATOM  =      5237.57178511
  ---------------------------------------------------
  free energy    TOTEN  =       -78.28016612 eV

  energy without entropy =      -78.28016612  energy(sigma->0) =      -78.28016612


--------------------------------------------------------------------------------------------------------




----------------------------------------- Iteration    1(   9)  ---------------------------------------


    POTLOK:  cpu time    0.43: real time    0.43
    SETDIJ:  cpu time    0.01: real time    0.01
    EDDIAG:  cpu time    2.14: real time    2.14
  RMM-DIIS:  cpu time   17.00: real time   17.00
    ORTHCH:  cpu time    0.46: real time    0.46
 BZINTS: Fermi energy:  1.792527; 76.000000 electrons
         Band energy:-573.380596;  BLOECHL correction:  0.000000
       DOS:  cpu time    0.05: real time    0.05
    CHARGE:  cpu time    0.64: real time    0.64
    MIXING:  cpu time    0.00: real time    0.00
    --------------------------------------------
      LOOP:  cpu time   20.72: real time   20.73

 eigenvalue-minimisations  : 19878
 total energy-change (2. order) : 0.1508305E-03  (-0.6417975E-02)
 number of electron      76.0000287 magnetization 
 augmentation part       12.9993438 magnetization 

 Broyden mixing:
  rms(total) = 0.32772E-01    rms(broyden)= 0.32768E-01
  rms(prec ) = 0.49074E-01
  weight for this iteration     100.00

 eigenvalues of (default mixing * dielectric matrix)
  average eigenvalue GAMMA=   1.5955
  2.3248  1.1601  1.1601  1.7369

 Free energy of the ion-electron system (eV)
  ---------------------------------------------------
  alpha Z        PSCENC =       214.06412575
  Ewald energy   TEWEN  =     -3718.62007479
  -1/2 Hartree   DENC   =     -1528.76748364
  -exchange  EXHF       =         0.00000000
  -V(xc)+E(xc)   XCENC  =       293.49685925
  PAW double counting   =      3521.33099659    -3523.97562771
  entropy T*S    EENTRO =         0.00000000
  eigenvalues    EBANDS =      -573.38059585
  atomic energy  EATOM  =      5237.57178511
  ---------------------------------------------------
  free energy    TOTEN  =       -78.28001529 eV

  energy without entropy =      -78.28001529  energy(sigma->0) =      -78.28001529


--------------------------------------------------------------------------------------------------------




----------------------------------------- Iteration    1(  10)  ---------------------------------------


    POTLOK:  cpu time    0.01: real time    0.01
    SETDIJ:  cpu time    0.01: real time    0.01
    EDDIAG:  cpu time    2.15: real time    2.15
  RMM-DIIS:  cpu time   17.32: real time   17.32
    ORTHCH:  cpu time    0.47: real time    0.47
 BZINTS: Fermi energy:  1.821052; 76.000000 electrons
         Band energy:-570.835874;  BLOECHL correction:  0.000000
       DOS:  cpu time    0.04: real time    0.04
    CHARGE:  cpu time    0.61: real time    0.62
    MIXING:  cpu time    0.00: real time    0.00
    --------------------------------------------
      LOOP:  cpu time   20.62: real time   20.63

 eigenvalue-minimisations  : 20304
 total energy-change (2. order) :-0.4631053E-02  (-0.8426939E-02)
 number of electron      76.0000286 magnetization 
 augmentation part       12.9694075 magnetization 

 Broyden mixing:
  rms(total) = 0.30583E-01    rms(broyden)= 0.30564E-01
  rms(prec ) = 0.45864E-01
  weight for this iteration     100.00

 eigenvalues of (default mixing * dielectric matrix)
  average eigenvalue GAMMA=   1.7208
  2.6832  2.6832  0.9498  1.1439  1.1439

 Free energy of the ion-electron system (eV)
  ---------------------------------------------------
  alpha Z        PSCENC =       214.06412575
  Ewald energy   TEWEN  =     -3718.62007479
  -1/2 Hartree   DENC   =     -1531.49086107
  -exchange  EXHF       =         0.00000000
  -V(xc)+E(xc)   XCENC  =       293.70270421
  PAW double counting   =      3521.54682247    -3524.22327372
  entropy T*S    EENTRO =         0.00000000
  eigenvalues    EBANDS =      -570.83587430
  atomic energy  EATOM  =      5237.57178511
  ---------------------------------------------------
  free energy    TOTEN  =       -78.28464635 eV

  energy without entropy =      -78.28464635  energy(sigma->0) =      -78.28464635


--------------------------------------------------------------------------------------------------------




----------------------------------------- Iteration    1(  11)  ---------------------------------------


    POTLOK:  cpu time    0.05: real time    0.08
    SETDIJ:  cpu time    0.01: real time    0.01
    EDDIAG:  cpu time    2.15: real time    2.16
  RMM-DIIS:  cpu time   16.78: real time   16.79
    ORTHCH:  cpu time    0.47: real time    0.47
 BZINTS: Fermi energy:  1.820172; 76.000000 electrons
         Band energy:-571.754191;  BLOECHL correction:  0.000000
       DOS:  cpu time    0.04: real time    0.04
    CHARGE:  cpu time    0.62: real time    0.62
    MIXING:  cpu time    0.00: real time    0.00
    --------------------------------------------
      LOOP:  cpu time   20.13: real time   20.18

 eigenvalue-minimisations  : 19691
 total energy-change (2. order) : 0.2790657E-02  (-0.9824827E-03)
 number of electron      76.0000287 magnetization 
 augmentation part       12.9753234 magnetization 

 Broyden mixing:
  rms(total) = 0.73613E-02    rms(broyden)= 0.73606E-02
  rms(prec ) = 0.11684E-01
  weight for this iteration     100.00

 eigenvalues of (default mixing * dielectric matrix)
  average eigenvalue GAMMA=   1.5836
  2.6743  2.6743  1.1573  1.1573  0.9853  0.8528

 Free energy of the ion-electron system (eV)
  ---------------------------------------------------
  alpha Z        PSCENC =       214.06412575
  Ewald energy   TEWEN  =     -3718.62007479
  -1/2 Hartree   DENC   =     -1530.54724095
  -exchange  EXHF       =         0.00000000
  -V(xc)+E(xc)   XCENC  =       293.61687115
  PAW double counting   =      3516.87580863    -3519.48893954
  entropy T*S    EENTRO =         0.00000000
  eigenvalues    EBANDS =      -571.75419104
  atomic energy  EATOM  =      5237.57178511
  ---------------------------------------------------
  free energy    TOTEN  =       -78.28185569 eV

  energy without entropy =      -78.28185569  energy(sigma->0) =      -78.28185569


--------------------------------------------------------------------------------------------------------




----------------------------------------- Iteration    1(  12)  ---------------------------------------


    POTLOK:  cpu time    0.01: real time    0.01
    SETDIJ:  cpu time    0.01: real time    0.01
    EDDIAG:  cpu time    2.15: real time    2.15
  RMM-DIIS:  cpu time   15.30: real time   15.31
    ORTHCH:  cpu time    0.47: real time    0.47
 BZINTS: Fermi energy:  1.814904; 76.000000 electrons
         Band energy:-571.907278;  BLOECHL correction:  0.000000
       DOS:  cpu time    0.04: real time    0.04
    CHARGE:  cpu time    0.62: real time    0.62
    MIXING:  cpu time    0.00: real time    0.00
    --------------------------------------------
      LOOP:  cpu time   18.61: real time   18.62

 eigenvalue-minimisations  : 17910
 total energy-change (2. order) :-0.1103466E-03  (-0.3745686E-03)
 number of electron      76.0000287 magnetization 
 augmentation part       12.9798958 magnetization 

 Broyden mixing:
  rms(total) = 0.10737E-02    rms(broyden)= 0.10623E-02
  rms(prec ) = 0.15430E-02
  weight for this iteration     100.00

 eigenvalues of (default mixing * dielectric matrix)
  average eigenvalue GAMMA=   1.5665
  2.8158  2.5499  1.3970  0.9851  0.9851  1.1163  1.1163

 Free energy of the ion-electron system (eV)
  ---------------------------------------------------
  alpha Z        PSCENC =       214.06412575
  Ewald energy   TEWEN  =     -3718.62007479
  -1/2 Hartree   DENC   =     -1530.38395694
  -exchange  EXHF       =         0.00000000
  -V(xc)+E(xc)   XCENC  =       293.60107326
  PAW double counting   =      3516.74063388    -3519.34827466
  entropy T*S    EENTRO =         0.00000000
  eigenvalues    EBANDS =      -571.90727764
  atomic energy  EATOM  =      5237.57178511
  ---------------------------------------------------
  free energy    TOTEN  =       -78.28196603 eV

  energy without entropy =      -78.28196603  energy(sigma->0) =      -78.28196603


--------------------------------------------------------------------------------------------------------




----------------------------------------- Iteration    1(  13)  ---------------------------------------


    POTLOK:  cpu time    0.01: real time    0.01
    SETDIJ:  cpu time    0.01: real time    0.01
    EDDIAG:  cpu time    2.17: real time    2.18
  RMM-DIIS:  cpu time    9.84: real time    9.85
    ORTHCH:  cpu time    0.47: real time    0.47
 BZINTS: Fermi energy:  1.810040; 76.000000 electrons
         Band energy:-571.827266;  BLOECHL correction:  0.000000
       DOS:  cpu time    0.04: real time    0.04
    --------------------------------------------
      LOOP:  cpu time   12.55: real time   12.56

 eigenvalue-minimisations  : 11369
 total energy-change (2. order) :-0.9110699E-05  (-0.3658977E-04)
 number of electron      76.0000287 magnetization 
 augmentation part       12.9798958 magnetization 

 Free energy of the ion-electron system (eV)
  ---------------------------------------------------
  alpha Z        PSCENC =       214.06412575
  Ewald energy   TEWEN  =     -3718.62007479
  -1/2 Hartree   DENC   =     -1530.46719707
  -exchange  EXHF       =         0.00000000
  -V(xc)+E(xc)   XCENC  =       293.60647483
  PAW double counting   =      3517.02636843    -3519.63619141
  entropy T*S    EENTRO =         0.00000000
  eigenvalues    EBANDS =      -571.82726599
  atomic energy  EATOM  =      5237.57178511
  ---------------------------------------------------
[...]
     32      -0.4657      2.00000
     33       1.0728      2.00000
     34       1.0730      2.00000
     35       1.1589      2.00000
     36       1.1590      2.00000
     37       1.5469      2.00000
     38       1.5471      2.00000
     39       9.0252      0.00000
     40       9.0255      0.00000
     41       9.3443      0.00000
     42       9.3458      0.00000
     43       9.5287      0.00000
     44       9.5993      0.00000
     45       9.9232      0.00000
     46       9.9526      0.00000

 k-point 121 :       0.4000    0.4000    0.5000
  band No.  band energies     occupation 
      1     -21.1978      2.00000
      2     -21.1975      2.00000
      3     -17.8958      2.00000
      4     -17.8956      2.00000
      5     -17.4842      2.00000
      6     -17.4840      2.00000
      7     -17.1049      2.00000
      8     -17.1048      2.00000
      9     -16.6556      2.00000
     10     -16.6554      2.00000
     11     -16.3395      2.00000
     12     -16.3393      2.00000
     13     -16.1651      2.00000
     14     -16.1649      2.00000
     15      -6.4138      2.00000
     16      -6.4137      2.00000
     17      -4.4743      2.00000
     18      -4.4743      2.00000
     19      -4.0534      2.00000
     20      -4.0533      2.00000
     21      -3.5628      2.00000
     22      -3.5626      2.00000
     23      -1.8002      2.00000
     24      -1.8000      2.00000
     25      -1.4874      2.00000
     26      -1.4873      2.00000
     27      -1.0650      2.00000
     28      -1.0649      2.00000
     29      -0.8127      2.00000
     30      -0.8127      2.00000
     31      -0.6452      2.00000
     32      -0.6451      2.00000
     33       1.1267      2.00000
     34       1.1269      2.00000
     35       1.3351      2.00000
     36       1.3353      2.00000
     37       1.6798      2.00000
     38       1.6800      2.00000
     39       8.8883      0.00000
     40       8.8887      0.00000
     41       9.1031      0.00000
     42       9.1078      0.00000
     43       9.3262      0.00000
     44       9.3281      0.00000
     45       9.8129      0.00000
     46       9.8331      0.00000

 k-point 122 :       0.5000    0.4000    0.5000
  band No.  band energies     occupation 
      1     -21.1946      2.00000
      2     -21.1943      2.00000
      3     -17.8753      2.00000
      4     -17.8751      2.00000
      5     -17.5410      2.00000
      6     -17.5408      2.00000
      7     -17.1002      2.00000
      8     -17.1001      2.00000
      9     -16.6587      2.00000
     10     -16.6585      2.00000
     11     -16.2805      2.00000
     12     -16.2803      2.00000
     13     -16.1961      2.00000
     14     -16.1960      2.00000
     15      -6.3956      2.00000
     16      -6.3955      2.00000
     17      -4.4813      2.00000
     18      -4.4813      2.00000
     19      -4.0459      2.00000
     20      -4.0458      2.00000
     21      -3.5016      2.00000
     22      -3.5014      2.00000
     23      -1.7688      2.00000
     24      -1.7687      2.00000
     25      -1.5449      2.00000
     26      -1.5449      2.00000
     27      -1.1455      2.00000
     28      -1.1454      2.00000
     29      -0.8392      2.00000
     30      -0.8391      2.00000
     31      -0.6524      2.00000
     32      -0.6523      2.00000
     33       1.1602      2.00000
     34       1.1603      2.00000
     35       1.3400      2.00000
     36       1.3401      2.00000
     37       1.7149      2.00000
     38       1.7151      2.00000
     39       8.9542      0.00000
     40       8.9543      0.00000
     41       9.0563      0.00000
     42       9.0573      0.00000
     43       9.4308      0.00000
     44       9.4347      0.00000
     45       9.7534      0.00000
     46       9.7587      0.00000

 k-point 123 :      -0.4000    0.4000    0.5000
  band No.  band energies     occupation 
      1     -21.2093      2.00000
      2     -21.2090      2.00000
      3     -17.7948      2.00000
      4     -17.7947      2.00000
      5     -17.5410      2.00000
      6     -17.5409      2.00000
      7     -17.0895      2.00000
      8     -17.0894      2.00000
      9     -16.6651      2.00000
     10     -16.6649      2.00000
     11     -16.2821      2.00000
     12     -16.2820      2.00000
     13     -16.2686      2.00000
     14     -16.2685      2.00000
     15      -6.4044      2.00000
     16      -6.4043      2.00000
     17      -4.4718      2.00000
     18      -4.4717      2.00000
     19      -4.0525      2.00000
     20      -4.0524      2.00000
     21      -3.5937      2.00000
     22      -3.5935      2.00000
     23      -1.6866      2.00000
     24      -1.6864      2.00000
     25      -1.4694      2.00000
     26      -1.4693      2.00000
     27      -1.2167      2.00000
     28      -1.2166      2.00000
     29      -0.8015      2.00000
     30      -0.8014      2.00000
     31      -0.6056      2.00000
     32      -0.6056      2.00000
     33       1.1502      2.00000
     34       1.1503      2.00000
     35       1.3002      2.00000
     36       1.3003      2.00000
     37       1.6889      2.00000
     38       1.6890      2.00000
     39       8.9917      0.00000
     40       8.9918      0.00000
     41       9.1015      0.00000
     42       9.1021      0.00000
     43       9.5195      0.00000
     44       9.5321      0.00000
     45       9.7725      0.00000
     46       9.7737      0.00000

 k-point 124 :       0.5000    0.5000    0.5000
  band No.  band energies     occupation 
      1     -21.1846      2.00000
      2     -21.1843      2.00000
      3     -17.9072      2.00000
      4     -17.9070      2.00000
      5     -17.5709      2.00000
      6     -17.5708      2.00000
      7     -17.1027      2.00000
      8     -17.1026      2.00000
      9     -16.6572      2.00000
     10     -16.6571      2.00000
     11     -16.2451      2.00000
     12     -16.2449      2.00000
     13     -16.1770      2.00000
     14     -16.1768      2.00000
     15      -6.3830      2.00000
     16      -6.3829      2.00000
     17      -4.4925      2.00000
     18      -4.4925      2.00000
     19      -4.0340      2.00000
     20      -4.0339      2.00000
     21      -3.4297      2.00000
     22      -3.4295      2.00000
     23      -1.7772      2.00000
     24      -1.7770      2.00000
     25      -1.6167      2.00000
     26      -1.6167      2.00000
     27      -1.1526      2.00000
     28      -1.1525      2.00000
     29      -0.8716      2.00000
     30      -0.8716      2.00000
     31      -0.6887      2.00000
     32      -0.6886      2.00000
     33       1.1863      2.00000
     34       1.1865      2.00000
     35       1.3666      2.00000
     36       1.3668      2.00000
     37       1.7430      2.00000
     38       1.7432      2.00000
     39       8.9744      0.00000
     40       8.9746      0.00000
     41       9.0086      0.00000
     42       9.0093      0.00000
     43       9.4628      0.00000
     44       9.4636      0.00000
     45       9.6894      0.00000
     46       9.6908      0.00000


--------------------------------------------------------------------------------------------------------


 soft charge-density along one line, spin component           1
         0         1         2         3         4         5         6         7         8         9
 total charge-density along one line
 
 pseudopotential strength for first ion, spin component:           1
-17.019   0.000   0.000  12.894   0.000   0.000   0.000   0.000
  0.000 -17.052   0.000   0.000  12.925   0.000   0.000   0.000
  0.000   0.000 -17.056   0.000   0.000  12.929   0.000   0.000
 12.894   0.000   0.000  -6.987   0.000   0.000   0.000   0.000
  0.000  12.925   0.000   0.000  -7.015   0.000  -0.001   0.000
  0.000   0.000  12.929   0.000   0.000  -7.020   0.000   0.000
  0.000   0.000   0.000   0.000  -0.001   0.000   3.376  -0.040
  0.000   0.000   0.000   0.000   0.000   0.000  -0.040   0.014
  0.000   0.000   0.000   0.000   0.000   0.000   0.000   0.000
  0.006   0.000   0.000  -0.005   0.000   0.000   0.000   0.000
  0.000   0.006   0.000   0.000  -0.005   0.000   0.001   0.000
  0.000   0.000   0.011   0.000   0.000  -0.009   0.000   0.000
  0.000   0.002   0.000   0.000  -0.002   0.000   0.002  -0.001
  0.000   0.000   0.000   0.000   0.000   0.000   0.000   0.000
  0.004   0.000   0.000  -0.003   0.000   0.000   0.000   0.000
  0.000   0.004   0.000   0.000  -0.004   0.000   0.000   0.000
  0.000   0.000   0.008   0.000   0.000  -0.006   0.000   0.000
  0.000   0.002   0.000   0.000  -0.001   0.000   0.002  -0.001
 total augmentation occupancy for first ion, spin component:           1
  2.128   0.000   0.000   0.178   0.000   0.000   0.000   0.000   0.000  -0.009   0.000   0.000   0.000   0.000   0.005   0.000
  0.000   2.119   0.000   0.000   0.157   0.000   0.004  -0.036   0.000   0.000   0.005   0.000   0.014   0.000   0.000  -0.003
  0.000   0.000   2.108   0.000   0.000   0.143   0.000   0.000   0.000   0.000   0.000   0.015   0.000   0.000   0.000   0.000
  0.178   0.000   0.000   0.255   0.000   0.000   0.000   0.000   0.000  -0.012   0.000   0.000   0.000   0.000   0.006   0.000
  0.000   0.157   0.000   0.000   0.215   0.000   0.018  -0.006   0.000   0.000   0.010   0.000   0.024   0.000   0.000  -0.005
  0.000   0.000   0.143   0.000   0.000   0.195   0.000   0.000   0.000   0.000   0.000   0.030   0.000   0.000   0.000   0.000
  0.000   0.004   0.000   0.000   0.018   0.000   0.516  -0.172   0.000   0.000  -0.002   0.000  -0.036   0.000   0.000   0.002
  0.000  -0.036   0.000   0.000  -0.006   0.000  -0.172   0.070   0.000   0.000   0.005   0.000   0.022   0.000   0.000  -0.002
  0.000   0.000   0.000   0.000   0.000   0.000   0.000   0.000   0.051   0.000   0.000   0.000   0.000  -0.019   0.000   0.000
 -0.009   0.000   0.000  -0.012   0.000   0.000   0.000   0.000   0.000   0.119   0.000   0.000   0.000   0.000  -0.047   0.000
  0.000   0.005   0.000   0.000   0.010   0.000  -0.002   0.005   0.000   0.000   0.152   0.000   0.024   0.000   0.000  -0.068
  0.000   0.000   0.015   0.000   0.000   0.030   0.000   0.000   0.000   0.000   0.000   0.110   0.000   0.000   0.000   0.000
  0.000   0.014   0.000   0.000   0.024   0.000  -0.036   0.022   0.000   0.000   0.024   0.000   0.207   0.000   0.000  -0.014
  0.000   0.000   0.000   0.000   0.000   0.000   0.000   0.000  -0.019   0.000   0.000   0.000   0.000   0.007   0.000   0.000
  0.005   0.000   0.000   0.006   0.000   0.000   0.000   0.000   0.000  -0.047   0.000   0.000   0.000   0.000   0.020   0.000
  0.000  -0.003   0.000   0.000  -0.005   0.000   0.002  -0.002   0.000   0.000  -0.068   0.000  -0.014   0.000   0.000   0.031
  0.000   0.000  -0.010   0.000   0.000  -0.016   0.000   0.000   0.000   0.000   0.000  -0.046   0.000   0.000   0.000   0.000
  0.000  -0.008   0.000   0.000  -0.011   0.000   0.022  -0.012   0.000   0.000  -0.014   0.000  -0.095   0.000   0.000   0.008


------------------------ aborting loop because EDIFF is reached ----------------------------------------


 


 total charge     
 
# of ion     s       p       d       tot
----------------------------------------
  1        0.169   6.186   0.525   6.880
  2        0.169   6.186   0.525   6.880
  3        1.579   3.608   0.000   5.187
  4        1.584   3.590   0.000   5.175
  5        1.579   3.583   0.000   5.162
  6        1.579   3.608   0.000   5.187
  7        1.579   3.608   0.000   5.187
  8        1.579   3.583   0.000   5.162
  9        1.584   3.590   0.000   5.175
 10        1.579   3.608   0.000   5.187
 11        1.231   2.286   0.000   3.517
 12        1.231   2.286   0.000   3.517
------------------------------------------------
tot       15.440  45.725   1.050  62.215
 
    CHARGE:  cpu time    0.62: real time    0.62
    FORLOC:  cpu time    0.00: real time    0.00
    FORNL :  cpu time    5.76: real time    5.76
    STRESS:  cpu time    8.11: real time    8.12
    FORCOR:  cpu time    0.01: real time    0.02
    FORHAR:  cpu time    0.01: real time    0.01
    MIXING:  cpu time    0.00: real time    0.00
    FORVDW:  cpu time    0.00: real time    0.00

  FORCE on cell =-STRESS in cart. coord.  units (eV):
  Direction    XX          YY          ZZ          XY          YZ          ZX
  --------------------------------------------------------------------------------------
  Alpha Z   214.06413   214.06413   214.06413
  Ewald   -1406.84221 -1396.02066  -915.76379     0.00000     0.00138     0.00000
  Hartree   425.42051   423.35142   681.74676     0.00000    -0.00003     0.00000
  E(xc)    -353.97932  -353.92864  -353.39925     0.00000     0.00000     0.00000
  Local    -275.03482  -286.03072 -1005.27804     0.00000    -0.00064     0.00000
  n-local   -60.35782   -58.86738   -57.64665     0.00884    -0.00865     0.03725
  augment   144.97249   145.39678   144.11549     0.00000     0.00002     0.00000
  Kinetic  1315.89541  1316.27634  1296.21897    -0.03724     0.03222     1.16318
  Fock        0.00000     0.00000     0.00000     0.00000     0.00000     0.00000
  -------------------------------------------------------------------------------------
  Total       4.13837     4.24126     4.05762     0.00000     0.00000     0.00000
  in kB      44.43259    45.53737    43.56563     0.00000     0.00000     0.00000
  external pressure =       44.51 kB  Pullay stress =        0.00 kB


 VOLUME and BASIS-vectors are now :
 -----------------------------------------------------------------------------
  energy-cutoff  :      520.00
  volume of cell :      149.22
      direct lattice vectors                 reciprocal lattice vectors
     3.465906000  0.000000000  3.097020000     0.144262424  0.000000000  0.161445519
     3.465906000  0.000000000 -3.097020000     0.144262424  0.000000000 -0.161445519
     0.000000000  6.950996000  0.000000000     0.000000000  0.143864275  0.000000000

  length of vectors
     4.648014337  4.648014337  6.950996000     0.216509359  0.216509359  0.143864275


 FORCES acting on ions
    electron-ion (+dipol)            ewald-force                    non-local-force                 convergence-correction
 -----------------------------------------------------------------------------------------------
   0.256E-05 0.136E-04 0.274E+02   -.904E-03 -.420E-03 -.272E+02   0.000E+00 -.271E-19 -.204E+00   0.304E-05 -.167E-04 -.187E-02
   0.256E-05 0.238E-03 -.274E+02   -.904E-03 -.750E-03 0.272E+02   0.260E-17 0.163E-18 0.204E+00   0.304E-05 0.189E-04 0.187E-02
   -.312E-02 0.149E+03 0.742E+02   -.308E-03 -.183E+03 -.991E+02   0.000E+00 0.337E+02 0.250E+02   0.308E-05 0.681E-02 0.100E-01
   -.137E+03 0.213E-03 -.969E+02   0.173E+03 0.157E-03 0.124E+03   -.354E+02 0.108E-18 -.266E+02   -.581E-02 -.167E-04 -.461E-02
   0.137E+03 -.297E-03 -.969E+02   -.173E+03 0.157E-03 0.124E+03   0.354E+02 -.108E-18 -.266E+02   0.581E-02 -.142E-04 -.461E-02
   -.381E-02 -.149E+03 0.742E+02   -.308E-03 0.183E+03 -.991E+02   0.000E+00 -.337E+02 0.250E+02   0.386E-05 -.683E-02 0.100E-01
   -.381E-02 0.149E+03 -.742E+02   -.308E-03 -.183E+03 0.991E+02   0.000E+00 0.337E+02 -.250E+02   0.386E-05 0.690E-02 -.100E-01
   -.137E+03 -.268E-02 0.969E+02   0.173E+03 -.338E-03 -.124E+03   -.354E+02 0.108E-18 0.266E+02   -.582E-02 0.182E-04 0.461E-02
   0.137E+03 -.228E-02 0.969E+02   -.173E+03 -.338E-03 -.124E+03   0.354E+02 -.108E-18 0.266E+02   0.581E-02 0.157E-04 0.461E-02
   -.312E-02 -.149E+03 -.742E+02   -.308E-03 0.183E+03 0.991E+02   0.000E+00 -.337E+02 -.250E+02   0.308E-05 -.688E-02 -.100E-01
   -.789E-03 -.636E-04 -.136E+02   -.177E-02 0.220E-03 0.142E+02   -.694E-17 0.000E+00 -.612E+00   0.347E-06 -.142E-04 0.698E-03
   -.789E-03 -.604E-03 0.136E+02   -.177E-02 -.191E-02 -.142E+02   0.000E+00 0.000E+00 0.612E+00   0.347E-06 0.147E-04 -.700E-03
 -----------------------------------------------------------------------------------------------
   -.481E-02 0.982E-03 0.815E-02   0.354E-13 -.142E-13 0.284E-13   -.711E-14 0.000E+00 -.344E-14   0.108E-04 0.374E-05 -.217E-05
 
 
 POSITION                                       TOTAL-FORCE (eV/Angst)
 -----------------------------------------------------------------------------------
      3.46591      1.73775     -0.94087         0.000000      0.000000      0.012950
      3.46591      5.21325      0.94087         0.000000      0.000000     -0.012950
      3.46591      0.55246      1.24325         0.000000      0.013448      0.035070
      1.19459      1.73775     -0.08191         0.051843      0.000000      0.089053
      5.73722      1.73775     -0.08191        -0.051843      0.000000      0.089053
      3.46591      2.92304      1.24325         0.000000     -0.013448      0.035070
      3.46591      4.02796     -1.24325         0.000000      0.013448     -0.035070
      1.19459      5.21325      0.08191         0.051843      0.000000     -0.089053
      5.73722      5.21325      0.08191        -0.051843      0.000000     -0.089053
      3.46591      6.39853     -1.24325         0.000000     -0.013448     -0.035070
      3.46591      1.73775      2.13618         0.000000      0.000000     -0.050016
      3.46591      5.21325     -2.13618         0.000000      0.000000      0.050016
 -----------------------------------------------------------------------------------
    total drift:                               -0.004796      0.000986      0.008145


--------------------------------------------------------------------------------------------------------



  FREE ENERGIE OF THE ION-ELECTRON SYSTEM (eV)
  ---------------------------------------------------
  free  energy   TOTEN  =       -78.28197515 eV

  energy  without entropy=      -78.28197515  energy(sigma->0) =      -78.28197515
 


--------------------------------------------------------------------------------------------------------


    POTLOK:  cpu time    0.02: real time    0.02


--------------------------------------------------------------------------------------------------------


     LOOP+:  cpu time  264.02: real time  264.93
    4ORBIT:  cpu time    0.00: real time    0.00
 


 total charge     
 
# of ion     s       p       d       tot
----------------------------------------
  1        0.169   6.186   0.525   6.880
  2        0.169   6.186   0.525   6.880
  3        1.579   3.608   0.000   5.187
  4        1.584   3.590   0.000   5.175
  5        1.579   3.583   0.000   5.162
  6        1.579   3.608   0.000   5.187
  7        1.579   3.608   0.000   5.187
  8        1.579   3.583   0.000   5.162
  9        1.584   3.590   0.000   5.175
 10        1.579   3.608   0.000   5.187
 11        1.231   2.286   0.000   3.517
 12        1.231   2.286   0.000   3.517
------------------------------------------------
tot       15.440  45.725   1.050  62.215
 
 BZINTS: Fermi energy:  1.810040; 76.000000 electrons
         Band energy:-571.827266;  BLOECHL correction:  0.000000

 total amount of memory used by VASP on root node   135283. kBytes
========================================================================

   base      :      30000. kBytes
   nonl-proj :      55157. kBytes
   fftplans  :        659. kBytes
   grid      :       1052. kBytes
   one-center:         46. kBytes
   wavefun   :      48369. kBytes
 
  
  
 General timing and accounting informations for this job:
 ========================================================
  
                  Total CPU time used (sec):      273.638
                            User time (sec):      254.486
                          System time (sec):       19.152
                         Elapsed time (sec):      275.791
  
                   Maximum memory used (kb):      229348.
                   Average memory used (kb):           0.
  
                          Minor page faults:        45665
                          Major page faults:            3
                 Voluntary context switches:          682
